<?xml version="1.0"?>
<VTKFile type="ImageData" version="1.0" byte_order="LittleEndian" header_type="UInt64">
<ImageData WholeExtent= "0 2 0 2 0 2" Origin= "0.000000e+00 0.000000e+00 0.000000e+00" Spacing= "5.000000e-01 5.000000e-01 5.000000e-01" >
<Piece Extent= "0 2 0 2 0 2">
<PointData>
<DataArray type="Float64" Name="velocity" NumberOfComponents="3" format="ascii">
0.000000e+00 0.000000e+00 0.000000e+00
0.000000e+00 0.000000e+00 0.000000e+00
0.000000e+00 0.000000e+00 0.000000e+00
0.000000e+00 0.000000e+00 0.000000e+00
0.000000e+00 0.000000e+00 0.000000e+00
0.000000e+00 0.000000e+00 0.000000e+00
0.000000e+00 0.000000e+00 0.000000e+00
0.000000e+00 0.000000e+00 0.000000e+00
0.000000e+00 0.000000e+00 0.000000e+00
0.000000e+00 0.000000e+00 0.000000e+00
0.000000e+00 0.000000e+00 0.000000e+00
0.000000e+00 0.000000e+00 0.000000e+00
0.000000e+00 0.000000e+00 0.000000e+00
8.326118e-03 3.860050e-03 3.860090e-03
3.562320e-02 6.538497e-04 6.539784e-04
0.000000e+00 0.000000e+00 0.000000e+00
0.000000e+00 0.000000e+00 0.000000e+00
0.000000e+00 0.000000e+00 0.000000e+00
0.000000e+00 0.000000e+00 0.000000e+00
0.000000e+00 0.000000e+00 0.000000e+00
0.000000e+00 0.000000e+00 0.000000e+00
0.000000e+00 0.000000e+00 0.000000e+00
0.000000e+00 0.000000e+00 0.000000e+00
0.000000e+00 0.000000e+00 0.000000e+00
0.000000e+00 0.000000e+00 0.000000e+00
0.000000e+00 0.000000e+00 0.000000e+00
0.000000e+00 0.000000e+00 0.000000e+00
</DataArray>
<DataArray type="Float64" Name="pressure" NumberOfComponents="1" format="ascii">
0.000000e+00
9.741969e-02
1.164311e-01
1.067206e-01
1.597765e-01
8.898525e-02
1.364283e-01
1.047466e-01
1.086885e-01
1.067204e-01
1.597764e-01
8.898561e-02
1.713277e-01
9.463776e-02
4.873276e-02
1.136989e-01
1.150265e-01
9.770784e-02
1.364282e-01
1.047468e-01
1.086886e-01
1.136990e-01
1.150265e-01
9.770789e-02
1.278141e-01
1.120741e-01
1.009464e-01
</DataArray>
</PointData>
</Piece>
</ImageData>
</VTKFile>
