<?xml version="1.0"?>
<VTKFile type="ImageData" version="1.0" byte_order="LittleEndian" header_type="UInt64">
<ImageData WholeExtent= "0 16 0 16 0 16" Origin= "0.000000e+00 0.000000e+00 0.000000e+00" Spacing= "6.250000e-02 6.250000e-02 6.250000e-02" >
<Piece Extent= "0 16 0 16 0 16">
<PointData>
<DataArray type="Float64" Name="velocity" NumberOfComponents="3" format="ascii">
0.000000e+00 0.000000e+00 0.000000e+00
0.000000e+00 0.000000e+00 0.000000e+00
0.000000e+00 0.000000e+00 0.000000e+00
0.000000e+00 0.000000e+00 0.000000e+00
0.000000e+00 0.000000e+00 0.000000e+00
0.000000e+00 0.000000e+00 0.000000e+00
0.000000e+00 0.000000e+00 0.000000e+00
0.000000e+00 0.000000e+00 0.000000e+00
0.000000e+00 0.000000e+00 0.000000e+00
0.000000e+00 0.000000e+00 0.000000e+00
0.000000e+00 0.000000e+00 0.000000e+00
0.000000e+00 0.000000e+00 0.000000e+00
0.000000e+00 0.000000e+00 0.000000e+00
0.000000e+00 0.000000e+00 0.000000e+00
0.000000e+00 0.000000e+00 0.000000e+00
0.000000e+00 0.000000e+00 0.000000e+00
0.000000e+00 0.000000e+00 0.000000e+00
0.000000e+00 0.000000e+00 0.000000e+00
0.000000e+00 0.000000e+00 0.000000e+00
0.000000e+00 0.000000e+00 0.000000e+00
0.000000e+00 0.000000e+00 0.000000e+00
0.000000e+00 0.000000e+00 0.000000e+00
0.000000e+00 0.000000e+00 0.000000e+00
0.000000e+00 0.000000e+00 0.000000e+00
0.000000e+00 0.000000e+00 0.000000e+00
0.000000e+00 0.000000e+00 0.000000e+00
0.000000e+00 0.000000e+00 0.000000e+00
0.000000e+00 0.000000e+00 0.000000e+00
0.000000e+00 0.000000e+00 0.000000e+00
0.000000e+00 0.000000e+00 0.000000e+00
0.000000e+00 0.000000e+00 0.000000e+00
0.000000e+00 0.000000e+00 0.000000e+00
0.000000e+00 0.000000e+00 0.000000e+00
0.000000e+00 0.000000e+00 0.000000e+00
0.000000e+00 0.000000e+00 0.000000e+00
0.000000e+00 0.000000e+00 0.000000e+00
0.000000e+00 0.000000e+00 0.000000e+00
0.000000e+00 0.000000e+00 0.000000e+00
0.000000e+00 0.000000e+00 0.000000e+00
0.000000e+00 0.000000e+00 0.000000e+00
0.000000e+00 0.000000e+00 0.000000e+00
0.000000e+00 0.000000e+00 0.000000e+00
0.000000e+00 0.000000e+00 0.000000e+00
0.000000e+00 0.000000e+00 0.000000e+00
0.000000e+00 0.000000e+00 0.000000e+00
0.000000e+00 0.000000e+00 0.000000e+00
0.000000e+00 0.000000e+00 0.000000e+00
0.000000e+00 0.000000e+00 0.000000e+00
0.000000e+00 0.000000e+00 0.000000e+00
0.000000e+00 0.000000e+00 0.000000e+00
0.000000e+00 0.000000e+00 0.000000e+00
0.000000e+00 0.000000e+00 0.000000e+00
0.000000e+00 0.000000e+00 0.000000e+00
0.000000e+00 0.000000e+00 0.000000e+00
0.000000e+00 0.000000e+00 0.000000e+00
0.000000e+00 0.000000e+00 0.000000e+00
0.000000e+00 0.000000e+00 0.000000e+00
0.000000e+00 0.000000e+00 0.000000e+00
0.000000e+00 0.000000e+00 0.000000e+00
0.000000e+00 0.000000e+00 0.000000e+00
0.000000e+00 0.000000e+00 0.000000e+00
0.000000e+00 0.000000e+00 0.000000e+00
0.000000e+00 0.000000e+00 0.000000e+00
0.000000e+00 0.000000e+00 0.000000e+00
0.000000e+00 0.000000e+00 0.000000e+00
0.000000e+00 0.000000e+00 0.000000e+00
0.000000e+00 0.000000e+00 0.000000e+00
0.000000e+00 0.000000e+00 0.000000e+00
0.000000e+00 0.000000e+00 0.000000e+00
0.000000e+00 0.000000e+00 0.000000e+00
0.000000e+00 0.000000e+00 0.000000e+00
0.000000e+00 0.000000e+00 0.000000e+00
0.000000e+00 0.000000e+00 0.000000e+00
0.000000e+00 0.000000e+00 0.000000e+00
0.000000e+00 0.000000e+00 0.000000e+00
0.000000e+00 0.000000e+00 0.000000e+00
0.000000e+00 0.000000e+00 0.000000e+00
0.000000e+00 0.000000e+00 0.000000e+00
0.000000e+00 0.000000e+00 0.000000e+00
0.000000e+00 0.000000e+00 0.000000e+00
0.000000e+00 0.000000e+00 0.000000e+00
0.000000e+00 0.000000e+00 0.000000e+00
0.000000e+00 0.000000e+00 0.000000e+00
0.000000e+00 0.000000e+00 0.000000e+00
0.000000e+00 0.000000e+00 0.000000e+00
0.000000e+00 0.000000e+00 0.000000e+00
0.000000e+00 0.000000e+00 0.000000e+00
0.000000e+00 0.000000e+00 0.000000e+00
0.000000e+00 0.000000e+00 0.000000e+00
0.000000e+00 0.000000e+00 0.000000e+00
0.000000e+00 0.000000e+00 0.000000e+00
0.000000e+00 0.000000e+00 0.000000e+00
0.000000e+00 0.000000e+00 0.000000e+00
0.000000e+00 0.000000e+00 0.000000e+00
0.000000e+00 0.000000e+00 0.000000e+00
0.000000e+00 0.000000e+00 0.000000e+00
0.000000e+00 0.000000e+00 0.000000e+00
0.000000e+00 0.000000e+00 0.000000e+00
0.000000e+00 0.000000e+00 0.000000e+00
0.000000e+00 0.000000e+00 0.000000e+00
0.000000e+00 0.000000e+00 0.000000e+00
0.000000e+00 0.000000e+00 0.000000e+00
0.000000e+00 0.000000e+00 0.000000e+00
0.000000e+00 0.000000e+00 0.000000e+00
0.000000e+00 0.000000e+00 0.000000e+00
0.000000e+00 0.000000e+00 0.000000e+00
0.000000e+00 0.000000e+00 0.000000e+00
0.000000e+00 0.000000e+00 0.000000e+00
0.000000e+00 0.000000e+00 0.000000e+00
0.000000e+00 0.000000e+00 0.000000e+00
0.000000e+00 0.000000e+00 0.000000e+00
0.000000e+00 0.000000e+00 0.000000e+00
0.000000e+00 0.000000e+00 0.000000e+00
0.000000e+00 0.000000e+00 0.000000e+00
0.000000e+00 0.000000e+00 0.000000e+00
0.000000e+00 0.000000e+00 0.000000e+00
0.000000e+00 0.000000e+00 0.000000e+00
0.000000e+00 0.000000e+00 0.000000e+00
0.000000e+00 0.000000e+00 0.000000e+00
0.000000e+00 0.000000e+00 0.000000e+00
0.000000e+00 0.000000e+00 0.000000e+00
0.000000e+00 0.000000e+00 0.000000e+00
0.000000e+00 0.000000e+00 0.000000e+00
0.000000e+00 0.000000e+00 0.000000e+00
0.000000e+00 0.000000e+00 0.000000e+00
0.000000e+00 0.000000e+00 0.000000e+00
0.000000e+00 0.000000e+00 0.000000e+00
0.000000e+00 0.000000e+00 0.000000e+00
0.000000e+00 0.000000e+00 0.000000e+00
0.000000e+00 0.000000e+00 0.000000e+00
0.000000e+00 0.000000e+00 0.000000e+00
0.000000e+00 0.000000e+00 0.000000e+00
0.000000e+00 0.000000e+00 0.000000e+00
0.000000e+00 0.000000e+00 0.000000e+00
0.000000e+00 0.000000e+00 0.000000e+00
0.000000e+00 0.000000e+00 0.000000e+00
0.000000e+00 0.000000e+00 0.000000e+00
0.000000e+00 0.000000e+00 0.000000e+00
0.000000e+00 0.000000e+00 0.000000e+00
0.000000e+00 0.000000e+00 0.000000e+00
0.000000e+00 0.000000e+00 0.000000e+00
0.000000e+00 0.000000e+00 0.000000e+00
0.000000e+00 0.000000e+00 0.000000e+00
0.000000e+00 0.000000e+00 0.000000e+00
0.000000e+00 0.000000e+00 0.000000e+00
0.000000e+00 0.000000e+00 0.000000e+00
0.000000e+00 0.000000e+00 0.000000e+00
0.000000e+00 0.000000e+00 0.000000e+00
0.000000e+00 0.000000e+00 0.000000e+00
0.000000e+00 0.000000e+00 0.000000e+00
0.000000e+00 0.000000e+00 0.000000e+00
0.000000e+00 0.000000e+00 0.000000e+00
0.000000e+00 0.000000e+00 0.000000e+00
0.000000e+00 0.000000e+00 0.000000e+00
0.000000e+00 0.000000e+00 0.000000e+00
0.000000e+00 0.000000e+00 0.000000e+00
0.000000e+00 0.000000e+00 0.000000e+00
0.000000e+00 0.000000e+00 0.000000e+00
0.000000e+00 0.000000e+00 0.000000e+00
0.000000e+00 0.000000e+00 0.000000e+00
0.000000e+00 0.000000e+00 0.000000e+00
0.000000e+00 0.000000e+00 0.000000e+00
0.000000e+00 0.000000e+00 0.000000e+00
0.000000e+00 0.000000e+00 0.000000e+00
0.000000e+00 0.000000e+00 0.000000e+00
0.000000e+00 0.000000e+00 0.000000e+00
0.000000e+00 0.000000e+00 0.000000e+00
0.000000e+00 0.000000e+00 0.000000e+00
0.000000e+00 0.000000e+00 0.000000e+00
0.000000e+00 0.000000e+00 0.000000e+00
0.000000e+00 0.000000e+00 0.000000e+00
0.000000e+00 0.000000e+00 0.000000e+00
0.000000e+00 0.000000e+00 0.000000e+00
0.000000e+00 0.000000e+00 0.000000e+00
0.000000e+00 0.000000e+00 0.000000e+00
0.000000e+00 0.000000e+00 0.000000e+00
0.000000e+00 0.000000e+00 0.000000e+00
0.000000e+00 0.000000e+00 0.000000e+00
0.000000e+00 0.000000e+00 0.000000e+00
0.000000e+00 0.000000e+00 0.000000e+00
0.000000e+00 0.000000e+00 0.000000e+00
0.000000e+00 0.000000e+00 0.000000e+00
0.000000e+00 0.000000e+00 0.000000e+00
0.000000e+00 0.000000e+00 0.000000e+00
0.000000e+00 0.000000e+00 0.000000e+00
0.000000e+00 0.000000e+00 0.000000e+00
0.000000e+00 0.000000e+00 0.000000e+00
0.000000e+00 0.000000e+00 0.000000e+00
0.000000e+00 0.000000e+00 0.000000e+00
0.000000e+00 0.000000e+00 0.000000e+00
0.000000e+00 0.000000e+00 0.000000e+00
0.000000e+00 0.000000e+00 0.000000e+00
0.000000e+00 0.000000e+00 0.000000e+00
0.000000e+00 0.000000e+00 0.000000e+00
0.000000e+00 0.000000e+00 0.000000e+00
0.000000e+00 0.000000e+00 0.000000e+00
0.000000e+00 0.000000e+00 0.000000e+00
0.000000e+00 0.000000e+00 0.000000e+00
0.000000e+00 0.000000e+00 0.000000e+00
0.000000e+00 0.000000e+00 0.000000e+00
0.000000e+00 0.000000e+00 0.000000e+00
0.000000e+00 0.000000e+00 0.000000e+00
0.000000e+00 0.000000e+00 0.000000e+00
0.000000e+00 0.000000e+00 0.000000e+00
0.000000e+00 0.000000e+00 0.000000e+00
0.000000e+00 0.000000e+00 0.000000e+00
0.000000e+00 0.000000e+00 0.000000e+00
0.000000e+00 0.000000e+00 0.000000e+00
0.000000e+00 0.000000e+00 0.000000e+00
0.000000e+00 0.000000e+00 0.000000e+00
0.000000e+00 0.000000e+00 0.000000e+00
0.000000e+00 0.000000e+00 0.000000e+00
0.000000e+00 0.000000e+00 0.000000e+00
0.000000e+00 0.000000e+00 0.000000e+00
0.000000e+00 0.000000e+00 0.000000e+00
0.000000e+00 0.000000e+00 0.000000e+00
0.000000e+00 0.000000e+00 0.000000e+00
0.000000e+00 0.000000e+00 0.000000e+00
0.000000e+00 0.000000e+00 0.000000e+00
0.000000e+00 0.000000e+00 0.000000e+00
0.000000e+00 0.000000e+00 0.000000e+00
0.000000e+00 0.000000e+00 0.000000e+00
0.000000e+00 0.000000e+00 0.000000e+00
0.000000e+00 0.000000e+00 0.000000e+00
0.000000e+00 0.000000e+00 0.000000e+00
0.000000e+00 0.000000e+00 0.000000e+00
0.000000e+00 0.000000e+00 0.000000e+00
0.000000e+00 0.000000e+00 0.000000e+00
0.000000e+00 0.000000e+00 0.000000e+00
0.000000e+00 0.000000e+00 0.000000e+00
0.000000e+00 0.000000e+00 0.000000e+00
0.000000e+00 0.000000e+00 0.000000e+00
0.000000e+00 0.000000e+00 0.000000e+00
0.000000e+00 0.000000e+00 0.000000e+00
0.000000e+00 0.000000e+00 0.000000e+00
0.000000e+00 0.000000e+00 0.000000e+00
0.000000e+00 0.000000e+00 0.000000e+00
0.000000e+00 0.000000e+00 0.000000e+00
0.000000e+00 0.000000e+00 0.000000e+00
0.000000e+00 0.000000e+00 0.000000e+00
0.000000e+00 0.000000e+00 0.000000e+00
0.000000e+00 0.000000e+00 0.000000e+00
0.000000e+00 0.000000e+00 0.000000e+00
0.000000e+00 0.000000e+00 0.000000e+00
0.000000e+00 0.000000e+00 0.000000e+00
0.000000e+00 0.000000e+00 0.000000e+00
0.000000e+00 0.000000e+00 0.000000e+00
0.000000e+00 0.000000e+00 0.000000e+00
0.000000e+00 0.000000e+00 0.000000e+00
0.000000e+00 0.000000e+00 0.000000e+00
0.000000e+00 0.000000e+00 0.000000e+00
0.000000e+00 0.000000e+00 0.000000e+00
0.000000e+00 0.000000e+00 0.000000e+00
0.000000e+00 0.000000e+00 0.000000e+00
0.000000e+00 0.000000e+00 0.000000e+00
0.000000e+00 0.000000e+00 0.000000e+00
0.000000e+00 0.000000e+00 0.000000e+00
0.000000e+00 0.000000e+00 0.000000e+00
0.000000e+00 0.000000e+00 0.000000e+00
0.000000e+00 0.000000e+00 0.000000e+00
0.000000e+00 0.000000e+00 0.000000e+00
0.000000e+00 0.000000e+00 0.000000e+00
0.000000e+00 0.000000e+00 0.000000e+00
0.000000e+00 0.000000e+00 0.000000e+00
0.000000e+00 0.000000e+00 0.000000e+00
0.000000e+00 0.000000e+00 0.000000e+00
0.000000e+00 0.000000e+00 0.000000e+00
0.000000e+00 0.000000e+00 0.000000e+00
0.000000e+00 0.000000e+00 0.000000e+00
0.000000e+00 0.000000e+00 0.000000e+00
0.000000e+00 0.000000e+00 0.000000e+00
0.000000e+00 0.000000e+00 0.000000e+00
0.000000e+00 0.000000e+00 0.000000e+00
0.000000e+00 0.000000e+00 0.000000e+00
0.000000e+00 0.000000e+00 0.000000e+00
0.000000e+00 0.000000e+00 0.000000e+00
0.000000e+00 0.000000e+00 0.000000e+00
0.000000e+00 0.000000e+00 0.000000e+00
0.000000e+00 0.000000e+00 0.000000e+00
0.000000e+00 0.000000e+00 0.000000e+00
0.000000e+00 0.000000e+00 0.000000e+00
0.000000e+00 0.000000e+00 0.000000e+00
0.000000e+00 0.000000e+00 0.000000e+00
0.000000e+00 0.000000e+00 0.000000e+00
0.000000e+00 0.000000e+00 0.000000e+00
0.000000e+00 0.000000e+00 0.000000e+00
0.000000e+00 0.000000e+00 0.000000e+00
0.000000e+00 0.000000e+00 0.000000e+00
0.000000e+00 0.000000e+00 0.000000e+00
0.000000e+00 0.000000e+00 0.000000e+00
0.000000e+00 0.000000e+00 0.000000e+00
0.000000e+00 0.000000e+00 0.000000e+00
0.000000e+00 0.000000e+00 0.000000e+00
0.000000e+00 0.000000e+00 0.000000e+00
0.000000e+00 0.000000e+00 0.000000e+00
0.000000e+00 0.000000e+00 0.000000e+00
0.000000e+00 0.000000e+00 0.000000e+00
0.000000e+00 0.000000e+00 0.000000e+00
0.000000e+00 0.000000e+00 0.000000e+00
0.000000e+00 0.000000e+00 0.000000e+00
0.000000e+00 0.000000e+00 0.000000e+00
0.000000e+00 0.000000e+00 0.000000e+00
0.000000e+00 0.000000e+00 0.000000e+00
0.000000e+00 0.000000e+00 0.000000e+00
0.000000e+00 0.000000e+00 0.000000e+00
0.000000e+00 0.000000e+00 0.000000e+00
0.000000e+00 0.000000e+00 0.000000e+00
7.619086e-04 7.618837e-04 7.618833e-04
4.647465e-04 2.279204e-04 2.279199e-04
2.081080e-04 8.636870e-05 8.636841e-05
1.058476e-04 3.642177e-05 3.642175e-05
5.708709e-05 1.654112e-05 1.654119e-05
3.306319e-05 8.180633e-06 8.180716e-06
2.052281e-05 4.310648e-06 4.310698e-06
1.361897e-05 2.406684e-06 2.406675e-06
9.657191e-06 1.409948e-06 1.409868e-06
7.299734e-06 8.621515e-07 8.620076e-07
5.853841e-06 5.498465e-07 5.496625e-07
4.938020e-06 3.697482e-07 3.695510e-07
4.326468e-06 2.715336e-07 2.713451e-07
3.880296e-06 2.351029e-07 2.349480e-07
3.467645e-06 2.537072e-07 2.535982e-07
3.775366e-06 2.771376e-07 2.770702e-07
0.000000e+00 0.000000e+00 0.000000e+00
2.279939e-04 4.646335e-04 2.279378e-04
2.981165e-04 2.978702e-04 2.010872e-04
2.018182e-04 1.333972e-04 8.974995e-05
1.189813e-04 6.342114e-05 4.279817e-05
7.210329e-05 3.154562e-05 2.133949e-05
4.518342e-05 1.652625e-05 1.120880e-05
2.971270e-05 9.098527e-06 6.205253e-06
2.059152e-05 5.228228e-06 3.595373e-06
1.507712e-05 3.117260e-06 2.170201e-06
1.166450e-05 1.918270e-06 1.359339e-06
9.506267e-06 1.216658e-06 8.841305e-07
8.108419e-06 8.017982e-07 6.033780e-07
7.169134e-06 5.651570e-07 4.457686e-07
6.497011e-06 4.498087e-07 3.811840e-07
5.964038e-06 4.113768e-07 3.952115e-07
6.067220e-06 4.044941e-07 4.207536e-07
0.000000e+00 0.000000e+00 0.000000e+00
8.648280e-05 2.078257e-04 8.640837e-05
1.337560e-04 2.012816e-04 8.977485e-05
1.279660e-04 1.272215e-04 6.257921e-05
9.457064e-05 7.096062e-05 3.486664e-05
6.524249e-05 3.962846e-05 1.947822e-05
4.500686e-05 2.254637e-05 1.110048e-05
3.173938e-05 1.318332e-05 6.522199e-06
2.319319e-05 7.924478e-06 3.957691e-06
1.767948e-05 4.884714e-06 2.476445e-06
1.409696e-05 3.078920e-06 1.596619e-06
1.174601e-05 1.982906e-06 1.063172e-06
1.018162e-05 1.312164e-06 7.394342e-07
9.113808e-06 9.091419e-07 5.536197e-07
8.348674e-06 6.821377e-07 4.747691e-07
7.734434e-06 5.714719e-07 4.859366e-07
7.759057e-06 5.388464e-07 5.122671e-07
0.000000e+00 0.000000e+00 0.000000e+00
3.656457e-05 1.053247e-04 3.648112e-05
6.386421e-05 1.180511e-04 4.284518e-05
7.186313e-05 9.332054e-05 3.488836e-05
6.399449e-05 6.250241e-05 2.400012e-05
5.073005e-05 3.939301e-05 1.513863e-05
3.869020e-05 2.452608e-05 9.446126e-06
2.947073e-05 1.533659e-05 5.938987e-06
2.285520e-05 9.699672e-06 3.795619e-06
1.824607e-05 6.215056e-06 2.474045e-06
1.507480e-05 4.033656e-06 1.648314e-06
1.290167e-05 2.652514e-06 1.127765e-06
1.140752e-05 1.774648e-06 8.024495e-07
1.036246e-05 1.223431e-06 6.120376e-07
9.597641e-06 8.919472e-07 5.306009e-07
8.971920e-06 7.154405e-07 5.422797e-07
8.961911e-06 6.596626e-07 5.694999e-07
0.000000e+00 0.000000e+00 0.000000e+00
1.670223e-05 5.626752e-05 1.661520e-05
3.204745e-05 7.069668e-05 2.140310e-05
4.064393e-05 6.339133e-05 1.951579e-05
4.105931e-05 4.854700e-05 1.515391e-05
3.664031e-05 3.421897e-05 1.078260e-05
3.077033e-05 2.321584e-05 7.351430e-06
2.531191e-05 1.551998e-05 4.953232e-06
2.087779e-05 1.033703e-05 3.341991e-06
1.750463e-05 6.894728e-06 2.274611e-06
1.502871e-05 4.614970e-06 1.569828e-06
1.324683e-05 3.104547e-06 1.106262e-06
1.197400e-05 2.106455e-06 8.074048e-07
1.105485e-05 1.455733e-06 6.292191e-07
1.036112e-05 1.048139e-06 5.535862e-07
9.774513e-06 8.220679e-07 5.677995e-07
9.774847e-06 7.488783e-07 5.956677e-07
0.000000e+00 0.000000e+00 0.000000e+00
8.352130e-06 3.190620e-05 8.264370e-06
1.706607e-05 4.323896e-05 1.128310e-05
2.363678e-05 4.248350e-05 1.114781e-05
2.630892e-05 3.574136e-05 9.470288e-06
2.579640e-05 2.751854e-05 7.359920e-06
2.357766e-05 2.012491e-05 5.433607e-06
2.084158e-05 1.430006e-05 3.905881e-06
1.824880e-05 1.000193e-05 2.778277e-06
1.606451e-05 6.934841e-06 1.974542e-06
1.433915e-05 4.784406e-06 1.412718e-06
1.302686e-05 3.292573e-06 1.026623e-06
1.204726e-05 2.268290e-06 7.696781e-07
1.131150e-05 1.577751e-06 6.138213e-07
1.073312e-05 1.132058e-06 5.490618e-07
1.022158e-05 8.790623e-07 5.668264e-07
1.026873e-05 7.963108e-07 5.950865e-07
0.000000e+00 0.000000e+00 0.000000e+00
4.486316e-06 1.900085e-05 4.399144e-06
9.659439e-06 2.718867e-05 6.284444e-06
1.431661e-05 2.849538e-05 6.573432e-06
1.718633e-05 2.570555e-05 5.966118e-06
1.819138e-05 2.117964e-05 4.964105e-06
1.786588e-05 1.646858e-05 3.908007e-06
1.683865e-05 1.233311e-05 2.974069e-06
1.557914e-05 9.010167e-06 2.220800e-06
1.435971e-05 6.471808e-06 1.644786e-06
1.330420e-05 4.591730e-06 1.219055e-06
1.244616e-05 3.228232e-06 9.135704e-07
1.177059e-05 2.257509e-06 7.038722e-07
1.123713e-05 1.583353e-06 5.747624e-07
1.079460e-05 1.138016e-06 5.231941e-07
1.037872e-05 8.815741e-07 5.448026e-07
1.049930e-05 7.973611e-07 5.732249e-07
0.000000e+00 0.000000e+00 0.000000e+00
2.581263e-06 1.171627e-05 2.495166e-06
5.795456e-06 1.746442e-05 3.673636e-06
9.072033e-06 1.920148e-05 4.006936e-06
1.157156e-05 1.824581e-05 3.819821e-06
1.303746e-05 1.583828e-05 3.349251e-06
1.360160e-05 1.293123e-05 2.776371e-06
1.355125e-05 1.011295e-05 2.216586e-06
1.316599e-05 7.666531e-06 1.727764e-06
1.265022e-05 5.677682e-06 1.328920e-06
1.212714e-05 4.128271e-06 1.018347e-06
1.165682e-05 2.957670e-06 7.862367e-07
1.125682e-05 2.096519e-06 6.222625e-07
1.091682e-05 1.483094e-06 5.202007e-07
1.061154e-05 1.070763e-06 4.821390e-07
1.029828e-05 8.315303e-07 5.074414e-07
1.050858e-05 7.530447e-07 5.358734e-07
0.000000e+00 0.000000e+00 0.000000e+00
1.578205e-06 7.369768e-06 1.493342e-06
3.675918e-06 1.134177e-05 2.241068e-06
6.018020e-06 1.293449e-05 2.516991e-06
8.065049e-06 1.278724e-05 2.488502e-06
9.564146e-06 1.155398e-05 2.271296e-06
1.049231e-05 9.800975e-06 1.961488e-06
1.095630e-05 7.935093e-06 1.629126e-06
1.110185e-05 6.199119e-06 1.317405e-06
1.105973e-05 4.707654e-06 1.047874e-06
1.092523e-05 3.492615e-06 8.278851e-07
1.075711e-05 2.541100e-06 6.573407e-07
1.058414e-05 1.821266e-06 5.338343e-07
1.041174e-05 1.298100e-06 4.566543e-07
1.023172e-05 9.425341e-07 4.312307e-07
1.001722e-05 7.361918e-07 4.599441e-07
1.032410e-05 6.689591e-07 4.883656e-07
0.000000e+00 0.000000e+00 0.000000e+00
1.017648e-06 4.637256e-06 9.343081e-07
2.450576e-06 7.336478e-06 1.414653e-06
4.165429e-06 8.616976e-06 1.619632e-06
5.813450e-06 8.785922e-06 1.643767e-06
7.189507e-06 8.187537e-06 1.546335e-06
8.220625e-06 7.152602e-06 1.378709e-06
8.925468e-06 5.947729e-06 1.182127e-06
9.367624e-06 4.755556e-06 9.856521e-07
9.620557e-06 3.681433e-06 8.069648e-07
9.748090e-06 2.772693e-06 6.550826e-07
9.796893e-06 2.039602e-06 5.336423e-07
9.795718e-06 1.472658e-06 4.440532e-07
9.756592e-06 1.054949e-06 3.885486e-07
9.681598e-06 7.701759e-07 3.744617e-07
9.554394e-06 6.065458e-07 4.064506e-07
9.957030e-06 5.540856e-07 4.350201e-07
0.000000e+00 0.000000e+00 0.000000e+00
6.831952e-07 2.844206e-06 6.023311e-07
1.698277e-06 4.627532e-06 9.123494e-07
2.981000e-06 5.578415e-06 1.055603e-06
4.303694e-06 5.831541e-06 1.090091e-06
5.510012e-06 5.564859e-06 1.047749e-06
6.518082e-06 4.969102e-06 9.565591e-07
7.306435e-06 4.213048e-06 8.404999e-07
7.891853e-06 3.424121e-06 7.181074e-07
8.308923e-06 2.685079e-06 6.021183e-07
8.595569e-06 2.040831e-06 5.003168e-07
8.784784e-06 1.509225e-06 4.170668e-07
8.900940e-06 1.091770e-06 3.551817e-07
8.957840e-06 7.823253e-07 3.181728e-07
8.963375e-06 5.729355e-07 3.142844e-07
8.907307e-06 4.557865e-07 3.497895e-07
9.399383e-06 4.195101e-07 3.788831e-07
0.000000e+00 0.000000e+00 0.000000e+00
4.660490e-07 1.635197e-06 3.900255e-07
1.197197e-06 2.756530e-06 5.869468e-07
2.165529e-06 3.411511e-06 6.806974e-07
3.222410e-06 3.642885e-06 7.088430e-07
4.250775e-06 3.539044e-06 6.898079e-07
5.173697e-06 3.208206e-06 6.393196e-07
5.952939e-06 2.753651e-06 5.712238e-07
6.580130e-06 2.258645e-06 4.967950e-07
7.065769e-06 1.781279e-06 4.243657e-07
7.429478e-06 1.356263e-06 3.595820e-07
7.692927e-06 1.000261e-06 3.061566e-07
7.875491e-06 7.182409e-07 2.670237e-07
7.991038e-06 5.093927e-07 2.460341e-07
8.050735e-06 3.710327e-07 2.517683e-07
8.047455e-06 2.978456e-07 2.915473e-07
8.619422e-06 2.768564e-07 3.217785e-07
0.000000e+00 0.000000e+00 0.000000e+00
3.069645e-07 8.240263e-07 2.405711e-07
8.227713e-07 1.469867e-06 3.573820e-07
1.542582e-06 1.876752e-06 4.106768e-07
2.371135e-06 2.042517e-06 4.255257e-07
3.219774e-06 2.009039e-06 4.138329e-07
4.019751e-06 1.835886e-06 3.848614e-07
4.727525e-06 1.582636e-06 3.463063e-07
5.322792e-06 1.298930e-06 3.043389e-07
5.802814e-06 1.020609e-06 2.635950e-07
6.175908e-06 7.700149e-07 2.273864e-07
6.455756e-06 5.586070e-07 1.981754e-07
6.657396e-06 3.903848e-07 1.783764e-07
6.794008e-06 2.654465e-07 1.717597e-07
6.881012e-06 1.842837e-07 1.871937e-07
6.910960e-06 1.459149e-07 2.326256e-07
7.553646e-06 1.370284e-07 2.648674e-07
0.000000e+00 0.000000e+00 0.000000e+00
1.725608e-07 3.178634e-07 1.239707e-07
5.036282e-07 6.329280e-07 1.786196e-07
1.005380e-06 8.428164e-07 1.963137e-07
1.617673e-06 9.329277e-07 1.947909e-07
2.271667e-06 9.226229e-07 1.830148e-07
2.908407e-06 8.418635e-07 1.663294e-07
3.486720e-06 7.205691e-07 1.480940e-07
3.983749e-06 5.835943e-07 1.304751e-07
4.391682e-06 4.488822e-07 1.148795e-07
4.713140e-06 3.276068e-07 1.022942e-07
4.956709e-06 2.253816e-07 9.368515e-08
5.133263e-06 1.437606e-07 9.063412e-08
5.253517e-06 8.104766e-08 9.654375e-08
5.331854e-06 3.394069e-08 1.208606e-07
5.382877e-06 7.774708e-09 1.732933e-07
6.082930e-06 2.651472e-09 2.089799e-07
0.000000e+00 0.000000e+00 0.000000e+00
5.386866e-08 6.804515e-08 3.313515e-08
2.137218e-07 1.745296e-07 3.922709e-08
4.967878e-07 2.460951e-07 2.804723e-08
8.654102e-07 2.747110e-07 1.364816e-08
1.271375e-06 2.683254e-07 2.018009e-09
1.673248e-06 2.382784e-07 -5.037315e-09
2.041830e-06 1.952917e-07 -7.669284e-09
2.360390e-06 1.479447e-07 -6.793420e-09
2.622458e-06 1.022246e-07 -3.463212e-09
2.828787e-06 6.168340e-08 1.490539e-09
2.984252e-06 2.788766e-08 7.741986e-09
3.095464e-06 7.718811e-10 1.593026e-08
3.166064e-06 -2.156194e-08 2.855127e-08
3.207129e-06 -4.680938e-08 5.394616e-08
3.173088e-06 -8.986362e-08 1.049968e-07
4.050463e-06 -1.199873e-07 1.406271e-07
0.000000e+00 0.000000e+00 0.000000e+00
0.000000e+00 0.000000e+00 0.000000e+00
0.000000e+00 0.000000e+00 0.000000e+00
0.000000e+00 0.000000e+00 0.000000e+00
0.000000e+00 0.000000e+00 0.000000e+00
0.000000e+00 0.000000e+00 0.000000e+00
0.000000e+00 0.000000e+00 0.000000e+00
0.000000e+00 0.000000e+00 0.000000e+00
0.000000e+00 0.000000e+00 0.000000e+00
0.000000e+00 0.000000e+00 0.000000e+00
0.000000e+00 0.000000e+00 0.000000e+00
0.000000e+00 0.000000e+00 0.000000e+00
0.000000e+00 0.000000e+00 0.000000e+00
0.000000e+00 0.000000e+00 0.000000e+00
0.000000e+00 0.000000e+00 0.000000e+00
0.000000e+00 0.000000e+00 0.000000e+00
0.000000e+00 0.000000e+00 0.000000e+00
0.000000e+00 0.000000e+00 0.000000e+00
0.000000e+00 0.000000e+00 0.000000e+00
0.000000e+00 0.000000e+00 0.000000e+00
0.000000e+00 0.000000e+00 0.000000e+00
0.000000e+00 0.000000e+00 0.000000e+00
0.000000e+00 0.000000e+00 0.000000e+00
0.000000e+00 0.000000e+00 0.000000e+00
0.000000e+00 0.000000e+00 0.000000e+00
0.000000e+00 0.000000e+00 0.000000e+00
0.000000e+00 0.000000e+00 0.000000e+00
0.000000e+00 0.000000e+00 0.000000e+00
0.000000e+00 0.000000e+00 0.000000e+00
0.000000e+00 0.000000e+00 0.000000e+00
0.000000e+00 0.000000e+00 0.000000e+00
0.000000e+00 0.000000e+00 0.000000e+00
0.000000e+00 0.000000e+00 0.000000e+00
0.000000e+00 0.000000e+00 0.000000e+00
0.000000e+00 0.000000e+00 0.000000e+00
2.279943e-04 2.279388e-04 4.646342e-04
2.981172e-04 2.010878e-04 2.978708e-04
2.018187e-04 8.974994e-05 1.333975e-04
1.189816e-04 4.279802e-05 6.342133e-05
7.210351e-05 2.133933e-05 3.154578e-05
4.518368e-05 1.120869e-05 1.652628e-05
2.971299e-05 6.205214e-06 9.098397e-06
2.059179e-05 3.595441e-06 5.227965e-06
1.507737e-05 2.170391e-06 3.116912e-06
1.166475e-05 1.359639e-06 1.917840e-06
9.506541e-06 8.845031e-07 1.216119e-06
8.108751e-06 6.037710e-07 8.011386e-07
7.169553e-06 4.461300e-07 5.644235e-07
6.497535e-06 3.814731e-07 4.490950e-07
5.964656e-06 3.953166e-07 4.108792e-07
6.067905e-06 4.207917e-07 4.041198e-07
0.000000e+00 0.000000e+00 0.000000e+00
2.012346e-04 2.979015e-04 2.979013e-04
2.602723e-04 2.598062e-04 2.598062e-04
2.185696e-04 1.524549e-04 1.524550e-04
1.507826e-04 8.079109e-05 8.079128e-05
9.970927e-05 4.355482e-05 4.355496e-05
6.672591e-05 2.416483e-05 2.416480e-05
4.600471e-05 1.388173e-05 1.388148e-05
3.303548e-05 8.245322e-06 8.244883e-06
2.483787e-05 5.046297e-06 5.045719e-06
1.958992e-05 3.172418e-06 3.171718e-06
1.618277e-05 2.048320e-06 2.047487e-06
1.393286e-05 1.369473e-06 1.368513e-06
1.240924e-05 9.734026e-07 9.724011e-07
1.133731e-05 7.726605e-07 7.717559e-07
1.056271e-05 7.021562e-07 7.016813e-07
1.048042e-05 6.903124e-07 6.900157e-07
0.000000e+00 0.000000e+00 0.000000e+00
8.997526e-05 2.013162e-04 1.334705e-04
1.531365e-04 2.175914e-04 1.525064e-04
1.579028e-04 1.565283e-04 1.122650e-04
1.289227e-04 9.708898e-05 7.004074e-05
9.584887e-05 5.784755e-05 4.171319e-05
6.965949e-05 3.454531e-05 2.489933e-05
5.110127e-05 2.094372e-05 1.509932e-05
3.846372e-05 1.294751e-05 9.347240e-06
2.997805e-05 8.161678e-06 5.908743e-06
2.429373e-05 5.240131e-06 3.811820e-06
2.047398e-05 3.428150e-06 2.513684e-06
1.788692e-05 2.299300e-06 1.710057e-06
1.610853e-05 1.610116e-06 1.231834e-06
1.485577e-05 1.216758e-06 9.855451e-07
1.394473e-05 1.025287e-06 8.994938e-07
1.377886e-05 9.699925e-07 8.862409e-07
0.000000e+00 0.000000e+00 0.000000e+00
4.308004e-05 1.180826e-04 6.353588e-05
8.163658e-05 1.491252e-04 8.089471e-05
9.876837e-05 1.266572e-04 7.009420e-05
9.335469e-05 9.062409e-05 5.063109e-05
7.810271e-05 6.018721e-05 3.369367e-05
6.211155e-05 3.893905e-05 2.179607e-05
4.884040e-05 2.508562e-05 1.405073e-05
3.881171e-05 1.624215e-05 9.117654e-06
3.155810e-05 1.060711e-05 5.981134e-06
2.642440e-05 6.994944e-06 3.975139e-06
2.282809e-05 4.664554e-06 2.686698e-06
2.031474e-05 3.160904e-06 1.866524e-06
1.854720e-05 2.205501e-06 1.368911e-06
1.728079e-05 1.626658e-06 1.110312e-06
1.634588e-05 1.318735e-06 1.021284e-06
1.615298e-05 1.222257e-06 1.008745e-06
0.000000e+00 0.000000e+00 0.000000e+00
2.165854e-05 7.072185e-05 3.169520e-05
4.451601e-05 9.723834e-05 4.370307e-05
5.974691e-05 9.253388e-05 4.181288e-05
6.325525e-05 7.415023e-05 3.373981e-05
5.868535e-05 5.427203e-05 2.478287e-05
5.089314e-05 3.794900e-05 1.735643e-05
4.293959e-05 2.598408e-05 1.190712e-05
3.611838e-05 1.764649e-05 8.116623e-06
3.073422e-05 1.196194e-05 5.538172e-06
2.667221e-05 8.119109e-06 3.800543e-06
2.368616e-05 5.531395e-06 2.638458e-06
2.152020e-05 3.799529e-06 1.876113e-06
1.995105e-05 2.659794e-06 1.404415e-06
1.879764e-05 1.942141e-06 1.157830e-06
1.792617e-05 1.543954e-06 1.074904e-06
1.776129e-05 1.415356e-06 1.064532e-06
0.000000e+00 0.000000e+00 0.000000e+00
1.154953e-05 4.325646e-05 1.670218e-05
2.520121e-05 6.334139e-05 2.434746e-05
3.659119e-05 6.517613e-05 2.503508e-05
4.223351e-05 5.681054e-05 2.187813e-05
4.267116e-05 4.500587e-05 1.739214e-05
3.997315e-05 3.369561e-05 1.306399e-05
3.604037e-05 2.441081e-05 9.502297e-06
3.204654e-05 1.735192e-05 6.795518e-06
2.853939e-05 1.219887e-05 4.822808e-06
2.568742e-05 8.520859e-06 3.419469e-06
2.347048e-05 5.933114e-06 2.440712e-06
2.179068e-05 4.136999e-06 1.778353e-06
2.052843e-05 2.916825e-06 1.360419e-06
1.956905e-05 2.125943e-06 1.141175e-06
1.882295e-05 1.676037e-06 1.069718e-06
1.873016e-05 1.528591e-06 1.062133e-06
0.000000e+00 0.000000e+00 0.000000e+00
6.555197e-06 2.719795e-05 9.291856e-06
1.495939e-05 4.163890e-05 1.408756e-05
2.307274e-05 4.536894e-05 1.525986e-05
2.850932e-05 4.210556e-05 1.415756e-05
3.088172e-05 3.549324e-05 1.196733e-05
3.090749e-05 2.812522e-05 9.526654e-06
2.957483e-05 2.140128e-05 7.295726e-06
2.768607e-05 1.585099e-05 5.452996e-06
2.574301e-05 1.152462e-05 4.017404e-06
2.399864e-05 8.269386e-06 2.940414e-06
2.254450e-05 5.879220e-06 2.157374e-06
2.138147e-05 4.161484e-06 1.610925e-06
2.046612e-05 2.960727e-06 1.259637e-06
1.973950e-05 2.164328e-06 1.075271e-06
1.915436e-05 1.703742e-06 1.017584e-06
1.916368e-05 1.551585e-06 1.012790e-06
0.000000e+00 0.000000e+00 0.000000e+00
3.943783e-06 1.746529e-05 5.429635e-06
9.334066e-06 2.765104e-05 8.462225e-06
1.510221e-05 3.143845e-05 9.520004e-06
1.970623e-05 3.059730e-05 9.236725e-06
2.259762e-05 2.706877e-05 8.188809e-06
2.391181e-05 2.245349e-05 6.831593e-06
2.409243e-05 1.780077e-05 5.464600e-06
2.360961e-05 1.365814e-05 4.246279e-06
2.282735e-05 1.022734e-05 3.236644e-06
2.197800e-05 7.516186e-06 2.440376e-06
2.118519e-05 5.444941e-06 1.838159e-06
2.049757e-05 3.908291e-06 1.405533e-06
1.991836e-05 2.807106e-06 1.122774e-06
1.942883e-05 2.063529e-06 9.749944e-07
1.901661e-05 1.628948e-06 9.312144e-07
1.914378e-05 1.484872e-06 9.288520e-07
0.000000e+00 0.000000e+00 0.000000e+00
2.506434e-06 1.133425e-05 3.316270e-06
6.115895e-06 1.842795e-05 5.260026e-06
1.028480e-05 2.165277e-05 6.078374e-06
1.402385e-05 2.185795e-05 6.096726e-06
1.684733e-05 2.007760e-05 5.606356e-06
1.867117e-05 1.726890e-05 4.854456e-06
1.965144e-05 1.415234e-05 4.024430e-06
2.003031e-05 1.117941e-05 3.232154e-06
2.003754e-05 8.579767e-06 2.538084e-06
1.984805e-05 6.433361e-06 1.965359e-06
1.957573e-05 4.734826e-06 1.516446e-06
1.928331e-05 3.439475e-06 1.185514e-06
1.899743e-05 2.492235e-06 9.664401e-07
1.872476e-05 1.844534e-06 8.533328e-07
1.847865e-05 1.464247e-06 8.224345e-07
1.872684e-05 1.338271e-06 8.220542e-07
0.000000e+00 0.000000e+00 0.000000e+00
1.670851e-06 7.320796e-06 2.101790e-06
4.187915e-06 1.218164e-05 3.364413e-06
7.267522e-06 1.470159e-05 3.957431e-06
1.026891e-05 1.527465e-05 4.065097e-06
1.281222e-05 1.444743e-05 3.841781e-06
1.474845e-05 1.278244e-05 3.423413e-06
1.609411e-05 1.075148e-05 2.919746e-06
1.695271e-05 8.689704e-06 2.408874e-06
1.745246e-05 6.799301e-06 1.939193e-06
1.770940e-05 5.178750e-06 1.536177e-06