<?xml version="1.0"?>
<VTKFile type="ImageData" version="1.0" byte_order="LittleEndian" header_type="UInt64">
<ImageData WholeExtent= "0 16 0 16 0 1" Origin= "0.000000e+00 0.000000e+00 5.000000e-01" Spacing= "6.250000e-02 6.250000e-02 6.250000e-02" >
<Piece Extent= "0 16 0 16 0 1">
<PointData>
<DataArray type="Float64" Name="velocity" NumberOfComponents="3" format="ascii">
0.000000e+00 0.000000e+00 0e0
0.000000e+00 0.000000e+00 0e0
0.000000e+00 0.000000e+00 0e0
0.000000e+00 0.000000e+00 0e0
0.000000e+00 0.000000e+00 0e0
0.000000e+00 0.000000e+00 0e0
0.000000e+00 0.000000e+00 0e0
0.000000e+00 0.000000e+00 0e0
0.000000e+00 0.000000e+00 0e0
0.000000e+00 0.000000e+00 0e0
0.000000e+00 0.000000e+00 0e0
0.000000e+00 0.000000e+00 0e0
0.000000e+00 0.000000e+00 0e0
0.000000e+00 0.000000e+00 0e0
0.000000e+00 0.000000e+00 0e0
0.000000e+00 0.000000e+00 0e0
0.000000e+00 0.000000e+00 0e0
0.000000e+00 0.000000e+00 0e0
2.582479e-06 2.496181e-06 0e0
5.796513e-06 3.675048e-06 0e0
9.072367e-06 4.008237e-06 0e0
1.157115e-05 3.820648e-06 0e0
1.303676e-05 3.349547e-06 0e0
1.360130e-05 2.776255e-06 0e0
1.355204e-05 2.216212e-06 0e0
1.316836e-05 1.727240e-06 0e0
1.265442e-05 1.328264e-06 0e0
1.213323e-05 1.017495e-06 0e0
1.166474e-05 7.850828e-07 0e0
1.126650e-05 6.207161e-07 0e0
1.092830e-05 5.182372e-07 0e0
1.062508e-05 4.798063e-07 0e0
1.031414e-05 5.047639e-07 0e0
1.052897e-05 5.330255e-07 0e0
0.000000e+00 0.000000e+00 0e0
3.945303e-06 5.430776e-06 0e0
9.335381e-06 8.463922e-06 0e0
1.510250e-05 9.521405e-06 0e0
1.970537e-05 9.237159e-06 0e0
2.259625e-05 8.188139e-06 0e0
2.391108e-05 6.829989e-06 0e0
2.409351e-05 5.462293e-06 0e0
2.361333e-05 4.243430e-06 0e0
2.283411e-05 3.233319e-06 0e0
2.198786e-05 2.436566e-06 0e0
2.119806e-05 1.833807e-06 0e0
2.051339e-05 1.400561e-06 0e0
1.993723e-05 1.117103e-06 0e0
1.945103e-05 9.686045e-07 0e0
1.904244e-05 9.240408e-07 0e0
1.917385e-05 9.213273e-07 0e0
0.000000e+00 0.000000e+00 0e0
4.449559e-06 8.197975e-06 0e0
1.086161e-05 1.327125e-05 0e0
1.809150e-05 1.540013e-05 0e0
2.419409e-05 1.530373e-05 0e0
2.833840e-05 1.383501e-05 0e0
3.054379e-05 1.173227e-05 0e0
3.126183e-05 9.512115e-06 0e0
3.103635e-05 7.469998e-06 0e0
3.032165e-05 5.736296e-06 0e0
2.942911e-05 4.341422e-06 0e0
2.854082e-05 3.266641e-06 0e0
2.774499e-05 2.476059e-06 0e0
2.707085e-05 1.932721e-06 0e0
2.651606e-05 1.600791e-06 0e0
2.606149e-05 1.438005e-06 0e0
2.620548e-05 1.392816e-06 0e0
0.000000e+00 0.000000e+00 0e0
4.392946e-06 9.997142e-06 0e0
1.095185e-05 1.661723e-05 0e0
1.868921e-05 1.979244e-05 0e0
2.560132e-05 2.014419e-05 0e0
3.067825e-05 1.861046e-05 0e0
3.376728e-05 1.609432e-05 0e0
3.521387e-05 1.327810e-05 0e0
3.552723e-05 1.058640e-05 0e0
3.517644e-05 8.233250e-06 0e0
3.451055e-05 6.293810e-06 0e0
3.375355e-05 4.766590e-06 0e0
3.303061e-05 3.615972e-06 0e0
3.239959e-05 2.796097e-06 0e0
3.187604e-05 2.261002e-06 0e0
3.145084e-05 1.967068e-06 0e0
3.163637e-05 1.874868e-06 0e0
0.000000e+00 0.000000e+00 0e0
4.012416e-06 1.062103e-05 0e0
1.017663e-05 1.802337e-05 0e0
1.773753e-05 2.195182e-05 0e0
2.485819e-05 2.284954e-05 0e0
3.048162e-05 2.157472e-05 0e0
3.430157e-05 1.904472e-05 0e0
3.650720e-05 1.601096e-05 0e0
3.750195e-05 1.298182e-05 0e0
3.770720e-05 1.024490e-05 0e0
3.746650e-05 7.927541e-06 0e0
3.702124e-05 6.059162e-06 0e0
3.652211e-05 4.618398e-06 0e0
3.605190e-05 3.563373e-06 0e0
3.564656e-05 2.849007e-06 0e0
3.531245e-05 2.437281e-06 0e0
3.557452e-05 2.302810e-06 0e0
0.000000e+00 0.000000e+00 0e0
3.494711e-06 1.024570e-05 0e0
9.000389e-06 1.769177e-05 0e0
1.598559e-05 2.197577e-05 0e0
2.288250e-05 2.335438e-05 0e0
2.868905e-05 2.251724e-05 0e0
3.300188e-05 2.028313e-05 0e0
3.585934e-05 1.737767e-05 0e0
3.753268e-05 1.433451e-05 0e0
3.835787e-05 1.148547e-05 0e0
3.863898e-05 9.003299e-06 0e0
3.860969e-05 6.952763e-06 0e0
3.843052e-05 5.336087e-06 0e0
3.820126e-05 4.125684e-06 0e0
3.797620e-05 3.286070e-06 0e0
3.778019e-05 2.789640e-06 0e0
3.814727e-05 2.624431e-06 0e0
0.000000e+00 0.000000e+00 0e0
2.960522e-06 9.195612e-06 0e0
7.733021e-06 1.612570e-05 0e0
1.396446e-05 2.038770e-05 0e0
2.037508e-05 2.208291e-05 0e0
2.607621e-05 2.171064e-05 0e0
3.062637e-05 1.993420e-05 0e0
3.395016e-05 1.739324e-05 0e0
3.619234e-05 1.458787e-05 0e0
3.759335e-05 1.186361e-05 0e0
3.839728e-05 9.420374e-06 0e0
3.881040e-05 7.353042e-06 0e0
3.898795e-05 5.689027e-06 0e0
3.903675e-05 4.419602e-06 0e0
3.902451e-05 3.523403e-06 0e0
3.899335e-05 2.984840e-06 0e0
3.948264e-05 2.803757e-06 0e0
0.000000e+00 0.000000e+00 0e0
2.471066e-06 7.780871e-06 0e0
6.539515e-06 1.384790e-05 0e0
1.197925e-05 1.779726e-05 0e0
1.777303e-05 1.961693e-05 0e0
2.316713e-05 1.963433e-05 0e0
2.773137e-05 1.834854e-05 0e0
3.131425e-05 1.627826e-05 0e0
3.396110e-05 1.386496e-05 0e0
3.582331e-05 1.143273e-05 0e0
3.707957e-05 9.188701e-06 0e0
3.789816e-05 7.246114e-06 0e0
3.841742e-05 5.653170e-06 0e0
3.874189e-05 4.419355e-06 0e0
3.894616e-05 3.537539e-06 0e0
3.908603e-05 3.002360e-06 0e0
3.969866e-05 2.821792e-06 0e0
0.000000e+00 0.000000e+00 0e0
2.045252e-06 6.238991e-06 0e0
5.480365e-06 1.127664e-05 0e0
1.016151e-05 1.472584e-05 0e0
1.529254e-05 1.649734e-05 0e0
2.025395e-05 1.678166e-05 0e0
2.465046e-05 1.593225e-05 0e0
2.829781e-05 1.434614e-05 0e0
3.117225e-05 1.238846e-05 0e0
3.334787e-05 1.034189e-05 0e0
3.494374e-05 8.402262e-06 0e0
3.608706e-05 6.687870e-06 0e0
3.689328e-05 5.259176e-06 0e0
3.745796e-05 4.139304e-06 0e0
3.785665e-05 3.332692e-06 0e0
3.815392e-05 2.841277e-06 0e0
3.888419e-05 2.675237e-06 0e0
0.000000e+00 0.000000e+00 0e0
1.679495e-06 4.719076e-06 0e0
4.552779e-06 8.691204e-06 0e0
8.528635e-06 1.154383e-05 0e0
1.299232e-05 1.313826e-05 0e0
1.744616e-05 1.356495e-05 0e0
2.154404e-05 1.305862e-05 0e0
2.509222e-05 1.191202e-05 0e0
2.802264e-05 1.040726e-05 0e0
3.035440e-05 8.778498e-06 0e0
3.215631e-05 7.196767e-06 0e0
3.351786e-05 5.773522e-06 0e0
3.453027e-05 4.572451e-06 0e0
3.527650e-05 3.624084e-06 0e0
3.582850e-05 2.939792e-06 0e0
3.625420e-05 2.524119e-06 0e0
3.708407e-05 2.384254e-06 0e0
0.000000e+00 0.000000e+00 0e0
1.357736e-06 3.319354e-06 0e0
3.723200e-06 6.276356e-06 0e0
7.041307e-06 8.505558e-06 0e0
1.084602e-05 9.838686e-06 0e0
1.474508e-05 1.029923e-05 0e0
1.844437e-05 1.003520e-05 0e0
2.175607e-05 9.251618e-06 0e0
2.458816e-05 8.158194e-06 0e0
2.692266e-05 6.936289e-06 0e0
2.879083e-05 5.724846e-06 0e0
3.025119e-05 4.619368e-06 0e0
3.137320e-05 3.678738e-06 0e0
3.222665e-05 2.934810e-06 0e0
3.287701e-05 2.401480e-06 0e0
3.339078e-05 2.081998e-06 0e0
3.429451e-05 1.975924e-06 0e0
0.000000e+00 0.000000e+00 0e0
1.058584e-06 2.104992e-06 0e0
2.943220e-06 4.152142e-06 0e0
5.630070e-06 5.777387e-06 0e0
8.777991e-06 6.802256e-06 0e0
1.208318e-05 7.213065e-06 0e0
1.530004e-05 7.098714e-06 0e0
1.825524e-05 6.596942e-06 0e0
2.084766e-05 5.854471e-06 0e0
2.303769e-05 5.002295e-06 0e0
2.483147e-05 4.143866e-06 0e0
2.626486e-05 3.353010e-06 0e0
2.739006e-05 2.677691e-06 0e0
2.826569e-05 2.146350e-06 0e0
2.894995e-05 1.772817e-06 0e0
2.950403e-05 1.556894e-06 0e0
3.045247e-05 1.487637e-06 0e0
0.000000e+00 0.000000e+00 0e0
7.604489e-07 1.129398e-06 0e0
2.164329e-06 2.405777e-06 0e0
4.222178e-06 3.475757e-06 0e0
6.698992e-06 4.175377e-06 0e0
9.362895e-06 4.479911e-06 0e0
1.201162e-05 4.441415e-06 0e0
1.449197e-05 4.146591e-06 0e0
1.670564e-05 3.689434e-06 0e0
1.860479e-05 3.154931e-06 0e0
2.018192e-05 2.611276e-06 0e0
2.145821e-05 2.108162e-06 0e0
2.247310e-05 1.678799e-06 0e0
2.327635e-05 1.343904e-06 0e0
2.392260e-05 1.116421e-06 0e0
2.446430e-05 9.964255e-07 0e0
2.542871e-05 9.620811e-07 0e0
0.000000e+00 0.000000e+00 0e0
4.496060e-07 4.440990e-07 0e0
1.357865e-06 1.109658e-06 0e0
2.770174e-06 1.695192e-06 0e0
4.537184e-06 2.082386e-06 0e0
6.485504e-06 2.254762e-06 0e0
8.455669e-06 2.241698e-06 0e0
1.032317e-05 2.090779e-06 0e0
1.200512e-05 1.852708e-06 0e0
1.345800e-05 1.573014e-06 0e0
1.467065e-05 1.288210e-06 0e0
1.565590e-05 1.025017e-06 0e0
1.644264e-05 8.013199e-07 0e0
1.707086e-05 6.271602e-07 0e0
1.758762e-05 5.072033e-07 0e0
1.806611e-05 4.483941e-07 0e0
1.901799e-05 4.367002e-07 0e0
0.000000e+00 0.000000e+00 0e0
1.489815e-07 8.441600e-08 0e0
5.646492e-07 3.193677e-07 0e0
1.302234e-06 5.298158e-07 0e0
2.276286e-06 6.636138e-07 0e0
3.375236e-06 7.174022e-07 0e0
4.497834e-06 7.044783e-07 0e0
5.566276e-06 6.434567e-07 0e0
6.529214e-06 5.530997e-07 0e0
7.359643e-06 4.497322e-07 0e0
8.050394e-06 3.461680e-07 0e0
8.608980e-06 2.516088e-07 0e0
9.053016e-06 1.719514e-07 0e0
9.405280e-06 1.095815e-07 0e0
9.697499e-06 5.879864e-08 0e0
9.935380e-06 4.789584e-09 0e0
1.099183e-05 -2.740846e-08 0e0
0.000000e+00 0.000000e+00 0e0
0.000000e+00 0.000000e+00 0e0
0.000000e+00 0.000000e+00 0e0
0.000000e+00 0.000000e+00 0e0
0.000000e+00 0.000000e+00 0e0
0.000000e+00 0.000000e+00 0e0
0.000000e+00 0.000000e+00 0e0
0.000000e+00 0.000000e+00 0e0
0.000000e+00 0.000000e+00 0e0
0.000000e+00 0.000000e+00 0e0
0.000000e+00 0.000000e+00 0e0
0.000000e+00 0.000000e+00 0e0
0.000000e+00 0.000000e+00 0e0
0.000000e+00 0.000000e+00 0e0
0.000000e+00 0.000000e+00 0e0
0.000000e+00 0.000000e+00 0e0
0.000000e+00 0.000000e+00 0e0
0.000000e+00 0.000000e+00 0e0
0.000000e+00 0.000000e+00 0e0
0.000000e+00 0.000000e+00 0e0
0.000000e+00 0.000000e+00 0e0
0.000000e+00 0.000000e+00 0e0
0.000000e+00 0.000000e+00 0e0
0.000000e+00 0.000000e+00 0e0
0.000000e+00 0.000000e+00 0e0
0.000000e+00 0.000000e+00 0e0
0.000000e+00 0.000000e+00 0e0
0.000000e+00 0.000000e+00 0e0
0.000000e+00 0.000000e+00 0e0
0.000000e+00 0.000000e+00 0e0
0.000000e+00 0.000000e+00 0e0
0.000000e+00 0.000000e+00 0e0
0.000000e+00 0.000000e+00 0e0
0.000000e+00 0.000000e+00 0e0
0.000000e+00 0.000000e+00 0e0
2.582479e-06 2.496181e-06 0e0
5.796513e-06 3.675048e-06 0e0
9.072367e-06 4.008237e-06 0e0
1.157115e-05 3.820648e-06 0e0
1.303676e-05 3.349547e-06 0e0
1.360130e-05 2.776255e-06 0e0
1.355204e-05 2.216212e-06 0e0
1.316836e-05 1.727240e-06 0e0
1.265442e-05 1.328264e-06 0e0
1.213323e-05 1.017495e-06 0e0
1.166474e-05 7.850828e-07 0e0
1.126650e-05 6.207161e-07 0e0
1.092830e-05 5.182372e-07 0e0
1.062508e-05 4.798063e-07 0e0
1.031414e-05 5.047639e-07 0e0
1.052897e-05 5.330255e-07 0e0
0.000000e+00 0.000000e+00 0e0
3.945303e-06 5.430776e-06 0e0
9.335381e-06 8.463922e-06 0e0
1.510250e-05 9.521405e-06 0e0
1.970537e-05 9.237159e-06 0e0
2.259625e-05 8.188139e-06 0e0
2.391108e-05 6.829989e-06 0e0
2.409351e-05 5.462293e-06 0e0
2.361333e-05 4.243430e-06 0e0
2.283411e-05 3.233319e-06 0e0
2.198786e-05 2.436566e-06 0e0
2.119806e-05 1.833807e-06 0e0
2.051339e-05 1.400561e-06 0e0
1.993723e-05 1.117103e-06 0e0
1.945103e-05 9.686045e-07 0e0
1.904244e-05 9.240408e-07 0e0
1.917385e-05 9.213273e-07 0e0
0.000000e+00 0.000000e+00 0e0
4.449559e-06 8.197975e-06 0e0
1.086161e-05 1.327125e-05 0e0
1.809150e-05 1.540013e-05 0e0
2.419409e-05 1.530373e-05 0e0
2.833840e-05 1.383501e-05 0e0
3.054379e-05 1.173227e-05 0e0
3.126183e-05 9.512115e-06 0e0
3.103635e-05 7.469998e-06 0e0
3.032165e-05 5.736296e-06 0e0
2.942911e-05 4.341422e-06 0e0
2.854082e-05 3.266641e-06 0e0
2.774499e-05 2.476059e-06 0e0
2.707085e-05 1.932721e-06 0e0
2.651606e-05 1.600791e-06 0e0
2.606149e-05 1.438005e-06 0e0
2.620548e-05 1.392816e-06 0e0
0.000000e+00 0.000000e+00 0e0
4.392946e-06 9.997142e-06 0e0
1.095185e-05 1.661723e-05 0e0
1.868921e-05 1.979244e-05 0e0
2.560132e-05 2.014419e-05 0e0
3.067825e-05 1.861046e-05 0e0
3.376728e-05 1.609432e-05 0e0
3.521387e-05 1.327810e-05 0e0
3.552723e-05 1.058640e-05 0e0
3.517644e-05 8.233250e-06 0e0
3.451055e-05 6.293810e-06 0e0
3.375355e-05 4.766590e-06 0e0
3.303061e-05 3.615972e-06 0e0
3.239959e-05 2.796097e-06 0e0
3.187604e-05 2.261002e-06 0e0
3.145084e-05 1.967068e-06 0e0
3.163637e-05 1.874868e-06 0e0
0.000000e+00 0.000000e+00 0e0
4.012416e-06 1.062103e-05 0e0
1.017663e-05 1.802337e-05 0e0
1.773753e-05 2.195182e-05 0e0
2.485819e-05 2.284954e-05 0e0
3.048162e-05 2.157472e-05 0e0
3.430157e-05 1.904472e-05 0e0
3.650720e-05 1.601096e-05 0e0
3.750195e-05 1.298182e-05 0e0
3.770720e-05 1.024490e-05 0e0
3.746650e-05 7.927541e-06 0e0
3.702124e-05 6.059162e-06 0e0
3.652211e-05 4.618398e-06 0e0
3.605190e-05 3.563373e-06 0e0
3.564656e-05 2.849007e-06 0e0
3.531245e-05 2.437281e-06 0e0
3.557452e-05 2.302810e-06 0e0
0.000000e+00 0.000000e+00 0e0
3.494711e-06 1.024570e-05 0e0
9.000389e-06 1.769177e-05 0e0
1.598559e-05 2.197577e-05 0e0
2.288250e-05 2.335438e-05 0e0
2.868905e-05 2.251724e-05 0e0
3.300188e-05 2.028313e-05 0e0
3.585934e-05 1.737767e-05 0e0
3.753268e-05 1.433451e-05 0e0
3.835787e-05 1.148547e-05 0e0
3.863898e-05 9.003299e-06 0e0
3.860969e-05 6.952763e-06 0e0
3.843052e-05 5.336087e-06 0e0
3.820126e-05 4.125684e-06 0e0
3.797620e-05 3.286070e-06 0e0
3.778019e-05 2.789640e-06 0e0
3.814727e-05 2.624431e-06 0e0
0.000000e+00 0.000000e+00 0e0
2.960522e-06 9.195612e-06 0e0
7.733021e-06 1.612570e-05 0e0
1.396446e-05 2.038770e-05 0e0
2.037508e-05 2.208291e-05 0e0
2.607621e-05 2.171064e-05 0e0
3.062637e-05 1.993420e-05 0e0
3.395016e-05 1.739324e-05 0e0
3.619234e-05 1.458787e-05 0e0
3.759335e-05 1.186361e-05 0e0
3.839728e-05 9.420374e-06 0e0
3.881040e-05 7.353042e-06 0e0
3.898795e-05 5.689027e-06 0e0
3.903675e-05 4.419602e-06 0e0
3.902451e-05 3.523403e-06 0e0
3.899335e-05 2.984840e-06 0e0
3.948264e-05 2.803757e-06 0e0
0.000000e+00 0.000000e+00 0e0
2.471066e-06 7.780871e-06 0e0
6.539515e-06 1.384790e-05 0e0
1.197925e-05 1.779726e-05 0e0
1.777303e-05 1.961693e-05 0e0
2.316713e-05 1.963433e-05 0e0
2.773137e-05 1.834854e-05 0e0
3.131425e-05 1.627826e-05 0e0
3.396110e-05 1.386496e-05 0e0
3.582331e-05 1.143273e-05 0e0
3.707957e-05 9.188701e-06 0e0
3.789816e-05 7.246114e-06 0e0
3.841742e-05 5.653170e-06 0e0
3.874189e-05 4.419355e-06 0e0
3.894616e-05 3.537539e-06 0e0
3.908603e-05 3.002360e-06 0e0
3.969866e-05 2.821792e-06 0e0
0.000000e+00 0.000000e+00 0e0
2.045252e-06 6.238991e-06 0e0
5.480365e-06 1.127664e-05 0e0
1.016151e-05 1.472584e-05 0e0
1.529254e-05 1.649734e-05 0e0
2.025395e-05 1.678166e-05 0e0
2.465046e-05 1.593225e-05 0e0
2.829781e-05 1.434614e-05 0e0
3.117225e-05 1.238846e-05 0e0
3.334787e-05 1.034189e-05 0e0
3.494374e-05 8.402262e-06 0e0
3.608706e-05 6.687870e-06 0e0
3.689328e-05 5.259176e-06 0e0
3.745796e-05 4.139304e-06 0e0
3.785665e-05 3.332692e-06 0e0
3.815392e-05 2.841277e-06 0e0
3.888419e-05 2.675237e-06 0e0
0.000000e+00 0.000000e+00 0e0
1.679495e-06 4.719076e-06 0e0
4.552779e-06 8.691204e-06 0e0
8.528635e-06 1.154383e-05 0e0
1.299232e-05 1.313826e-05 0e0
1.744616e-05 1.356495e-05 0e0
2.154404e-05 1.305862e-05 0e0
2.509222e-05 1.191202e-05 0e0
2.802264e-05 1.040726e-05 0e0
3.035440e-05 8.778498e-06 0e0
3.215631e-05 7.196767e-06 0e0
3.351786e-05 5.773522e-06 0e0
3.453027e-05 4.572451e-06 0e0
3.527650e-05 3.624084e-06 0e0
3.582850e-05 2.939792e-06 0e0
3.625420e-05 2.524119e-06 0e0
3.708407e-05 2.384254e-06 0e0
0.000000e+00 0.000000e+00 0e0
1.357736e-06 3.319354e-06 0e0
3.723200e-06 6.276356e-06 0e0
7.041307e-06 8.505558e-06 0e0
1.084602e-05 9.838686e-06 0e0
1.474508e-05 1.029923e-05 0e0
1.844437e-05 1.003520e-05 0e0
2.175607e-05 9.251618e-06 0e0
2.458816e-05 8.158194e-06 0e0
2.692266e-05 6.936289e-06 0e0
2.879083e-05 5.724846e-06 0e0
3.025119e-05 4.619368e-06 0e0
3.137320e-05 3.678738e-06 0e0
3.222665e-05 2.934810e-06 0e0
3.287701e-05 2.401480e-06 0e0
3.339078e-05 2.081998e-06 0e0
3.429451e-05 1.975924e-06 0e0
0.000000e+00 0.000000e+00 0e0
1.058584e-06 2.104992e-06 0e0
2.943220e-06 4.152142e-06 0e0
5.630070e-06 5.777387e-06 0e0
8.777991e-06 6.802256e-06 0e0
1.208318e-05 7.213065e-06 0e0
1.530004e-05 7.098714e-06 0e0
1.825524e-05 6.596942e-06 0e0
2.084766e-05 5.854471e-06 0e0
2.303769e-05 5.002295e-06 0e0
2.483147e-05 4.143866e-06 0e0
2.626486e-05 3.353010e-06 0e0
2.739006e-05 2.677691e-06 0e0
2.826569e-05 2.146350e-06 0e0
2.894995e-05 1.772817e-06 0e0
2.950403e-05 1.556894e-06 0e0
3.045247e-05 1.487637e-06 0e0
0.000000e+00 0.000000e+00 0e0
7.604489e-07 1.129398e-06 0e0
2.164329e-06 2.405777e-06 0e0
4.222178e-06 3.475757e-06 0e0
6.698992e-06 4.175377e-06 0e0
9.362895e-06 4.479911e-06 0e0
1.201162e-05 4.441415e-06 0e0
1.449197e-05 4.146591e-06 0e0
1.670564e-05 3.689434e-06 0e0
1.860479e-05 3.154931e-06 0e0
2.018192e-05 2.611276e-06 0e0
2.145821e-05 2.108162e-06 0e0
2.247310e-05 1.678799e-06 0e0
2.327635e-05 1.343904e-06 0e0
2.392260e-05 1.116421e-06 0e0
2.446430e-05 9.964255e-07 0e0
2.542871e-05 9.620811e-07 0e0
0.000000e+00 0.000000e+00 0e0
4.496060e-07 4.440990e-07 0e0
1.357865e-06 1.109658e-06 0e0
2.770174e-06 1.695192e-06 0e0
4.537184e-06 2.082386e-06 0e0
6.485504e-06 2.254762e-06 0e0
8.455669e-06 2.241698e-06 0e0
1.032317e-05 2.090779e-06 0e0
1.200512e-05 1.852708e-06 0e0
1.345800e-05 1.573014e-06 0e0
1.467065e-05 1.288210e-06 0e0
1.565590e-05 1.025017e-06 0e0
1.644264e-05 8.013199e-07 0e0
1.707086e-05 6.271602e-07 0e0
1.758762e-05 5.072033e-07 0e0
1.806611e-05 4.483941e-07 0e0
1.901799e-05 4.367002e-07 0e0
0.000000e+00 0.000000e+00 0e0
1.489815e-07 8.441600e-08 0e0
5.646492e-07 3.193677e-07 0e0
1.302234e-06 5.298158e-07 0e0
2.276286e-06 6.636138e-07 0e0
3.375236e-06 7.174022e-07 0e0
4.497834e-06 7.044783e-07 0e0
5.566276e-06 6.434567e-07 0e0
6.529214e-06 5.530997e-07 0e0
7.359643e-06 4.497322e-07 0e0
8.050394e-06 3.461680e-07 0e0
8.608980e-06 2.516088e-07 0e0
9.053016e-06 1.719514e-07 0e0
9.405280e-06 1.095815e-07 0e0
9.697499e-06 5.879864e-08 0e0
9.935380e-06 4.789584e-09 0e0
1.099183e-05 -2.740846e-08 0e0
0.000000e+00 0.000000e+00 0e0
0.000000e+00 0.000000e+00 0e0
0.000000e+00 0.000000e+00 0e0
0.000000e+00 0.000000e+00 0e0
0.000000e+00 0.000000e+00 0e0
0.000000e+00 0.000000e+00 0e0
0.000000e+00 0.000000e+00 0e0
0.000000e+00 0.000000e+00 0e0
0.000000e+00 0.000000e+00 0e0
0.000000e+00 0.000000e+00 0e0
0.000000e+00 0.000000e+00 0e0
0.000000e+00 0.000000e+00 0e0
0.000000e+00 0.000000e+00 0e0
0.000000e+00 0.000000e+00 0e0
0.000000e+00 0.000000e+00 0e0
0.000000e+00 0.000000e+00 0e0
0.000000e+00 0.000000e+00 0e0
</DataArray>
<DataArray type="Float64" Name="pressure" NumberOfComponents="1" format="ascii">
5.140989e-04
5.016815e-04
4.814889e-04
4.517349e-04
4.142283e-04
3.734626e-04
3.327728e-04
2.937141e-04
2.566727e-04
2.214104e-04
1.874655e-04
1.543541e-04
1.216884e-04
8.930978e-05
5.757542e-05
2.961271e-05
1.725876e-05
4.988488e-04
5.047044e-04
5.032391e-04
4.784948e-04
4.400277e-04
3.953989e-04
3.498117e-04
3.059624e-04
2.647557e-04
2.261207e-04
1.895733e-04
1.545427e-04
1.205558e-04
8.736297e-05
5.529892e-05
2.475911e-05
9.487682e-06
4.719162e-04
4.978327e-04
5.248731e-04
5.149428e-04
4.812759e-04
4.351712e-04
3.848265e-04
3.350423e-04
2.879901e-04
2.442177e-04
2.034569e-04
1.651384e-04
1.286816e-04
9.366177e-05
5.980371e-05
2.691139e-05
1.035874e-05
4.352916e-04
4.682713e-04
5.113585e-04
5.149940e-04
4.902266e-04
4.487262e-04
3.997845e-04
3.494049e-04
3.007385e-04
2.549997e-04
2.123072e-04
1.722754e-04
1.343666e-04
9.806030e-05
6.289092e-05
2.850745e-05
1.111152e-05
3.934593e-04
4.274937e-04
4.768674e-04
4.899327e-04
4.746547e-04
4.409363e-04
3.975086e-04
3.505542e-04
3.037219e-04
2.587523e-04
2.161907e-04
1.759430e-04
1.376364e-04
1.008127e-04
6.500282e-05
2.983213e-05
1.197724e-05
3.523470e-04
3.842548e-04
4.334581e-04
4.517750e-04
4.445007e-04
4.191676e-04
3.830501e-04
3.417664e-04
2.989704e-04
2.566915e-04
2.158198e-04
1.765675e-04
1.387897e-04
1.021820e-04
6.637950e-05
3.110909e-05
1.315759e-05
3.160266e-04
3.444370e-04
3.898400e-04
4.101000e-04
4.085837e-04
3.906326e-04
3.618501e-04
3.268901e-04
2.891094e-04
2.505490e-04
2.123169e-04
1.748735e-04
1.383022e-04
1.024866e-04
6.721993e-05
3.237770e-05
1.459140e-05
2.864276e-04
3.111135e-04
3.511349e-04
3.711187e-04
3.731711e-04
3.609293e-04
3.384741e-04
3.095459e-04
2.767903e-04
2.422349e-04
2.070272e-04
1.718004e-04
1.368240e-04
1.021591e-04
6.776992e-05
3.370317e-05
1.626179e-05
2.641422e-04
2.853554e-04
3.196534e-04
3.380785e-04
3.419720e-04
3.337223e-04
3.163131e-04
2.921726e-04
2.638790e-04
2.330044e-04
2.007193e-04
1.677257e-04
1.344348e-04
1.010610e-04
6.771789e-05
3.462265e-05
1.761676e-05
2.490544e-04
2.673449e-04
2.962666e-04
3.124850e-04
3.169026e-04
3.111289e-04
2.971391e-04
2.770095e-04
2.523945e-04
2.247409e-04
1.950842e-04
1.641576e-04
1.324558e-04
1.003126e-04
6.797380e-05
3.579290e-05
1.919678e-05
2.407151e-04
2.563202e-04
2.802443e-04
2.939923e-04
2.981859e-04
2.938455e-04
2.823054e-04
2.649629e-04
2.431629e-04
2.180360e-04
1.905041e-04
1.612787e-04
1.308974e-04
9.977210e-05
6.824644e-05
3.678624e-05
2.050158e-05
2.385999e-04
2.517481e-04
2.711352e-04
2.823854e-04
2.858812e-04
2.822011e-04
2.721702e-04
2.567528e-04
2.369279e-04
2.136175e-04
1.876291e-04
1.596403e-04
1.302040e-04
9.977479e-05
6.875381e-05
3.768458e-05
2.154647e-05
2.420484e-04
2.527346e-04
2.679655e-04
2.768854e-04
2.795453e-04
2.761000e-04
2.669561e-04
2.527239e-04
2.341331e-04
2.119446e-04
1.868862e-04
1.596102e-04
1.306738e-04
1.005439e-04
6.963656e-05
3.851838e-05
2.229706e-05
2.500387e-04
2.581336e-04
2.696540e-04
2.766903e-04
2.787192e-04
2.754005e-04
2.667594e-04
2.531443e-04
2.351245e-04
2.133817e-04
1.886181e-04
1.614911e-04
1.325728e-04
1.023213e-04
7.108324e-05
3.940852e-05
2.284098e-05
2.607189e-04
2.662230e-04
2.749212e-04
2.810454e-04
2.830956e-04
2.801190e-04
2.718004e-04
2.583351e-04
2.402538e-04
2.182624e-04
1.931162e-04
1.655307e-04
1.361183e-04
1.053766e-04
7.349970e-05
4.054735e-05
2.311785e-05
2.705972e-04
2.743441e-04
2.823203e-04
2.894415e-04
2.927472e-04
2.906264e-04
2.825628e-04
2.687818e-04
2.499465e-04
2.269262e-04
2.006325e-04
1.719077e-04
1.414616e-04
1.098031e-04
7.754917e-05
4.373297e-05
2.513825e-05
2.747087e-04
2.787483e-04
2.886455e-04
2.985761e-04
3.042845e-04
3.037513e-04
2.964290e-04
2.826733e-04
2.633391e-04
2.394952e-04
2.122310e-04
1.825332e-04
1.512095e-04
1.188679e-04
8.589555e-05
5.495405e-05
4.061413e-05
5.140989e-04
5.016815e-04
4.814889e-04
4.517349e-04
4.142283e-04
3.734626e-04
3.327728e-04
2.937141e-04
2.566727e-04
2.214104e-04
1.874655e-04
1.543541e-04
1.216884e-04
8.930978e-05
5.757542e-05
2.961271e-05
1.725876e-05
4.988488e-04
5.047044e-04
5.032391e-04
4.784948e-04
4.400277e-04
3.953989e-04
3.498117e-04
3.059624e-04
2.647557e-04
2.261207e-04
1.895733e-04
1.545427e-04
1.205558e-04
8.736297e-05
5.529892e-05
2.475911e-05
9.487682e-06
4.719162e-04
4.978327e-04
5.248731e-04
5.149428e-04
4.812759e-04
4.351712e-04
3.848265e-04
3.350423e-04
2.879901e-04
2.442177e-04
2.034569e-04
1.651384e-04
1.286816e-04
9.366177e-05
5.980371e-05
2.691139e-05
1.035874e-05
4.352916e-04
4.682713e-04
5.113585e-04
5.149940e-04
4.902266e-04
4.487262e-04
3.997845e-04
3.494049e-04
3.007385e-04
2.549997e-04
2.123072e-04
1.722754e-04
1.343666e-04
9.806030e-05
6.289092e-05
2.850745e-05
1.111152e-05
3.934593e-04
4.274937e-04
4.768674e-04
4.899327e-04
4.746547e-04
4.409363e-04
3.975086e-04
3.505542e-04
3.037219e-04
2.587523e-04
2.161907e-04
1.759430e-04
1.376364e-04
1.008127e-04
6.500282e-05
2.983213e-05
1.197724e-05
3.523470e-04
3.842548e-04
4.334581e-04
4.517750e-04
4.445007e-04
4.191676e-04
3.830501e-04
3.417664e-04
2.989704e-04
2.566915e-04
2.158198e-04
1.765675e-04
1.387897e-04
1.021820e-04
6.637950e-05
3.110909e-05
1.315759e-05
3.160266e-04
3.444370e-04
3.898400e-04
4.101000e-04
4.085837e-04
3.906326e-04
3.618501e-04
3.268901e-04
2.891094e-04
2.505490e-04
2.123169e-04
1.748735e-04
1.383022e-04
1.024866e-04
6.721993e-05
3.237770e-05
1.459140e-05
2.864276e-04
3.111135e-04
3.511349e-04
3.711187e-04
3.731711e-04
3.609293e-04
3.384741e-04
3.095459e-04
2.767903e-04
2.422349e-04
2.070272e-04
1.718004e-04
1.368240e-04
1.021591e-04
6.776992e-05
3.370317e-05
1.626179e-05
2.641422e-04
2.853554e-04
3.196534e-04
3.380785e-04
3.419720e-04
3.337223e-04
3.163131e-04
2.921726e-04
2.638790e-04
2.330044e-04
2.007193e-04
1.677257e-04
1.344348e-04
1.010610e-04
6.771789e-05
3.462265e-05
1.761676e-05
2.490544e-04
2.673449e-04
2.962666e-04
3.124850e-04
3.169026e-04
3.111289e-04
2.971391e-04
2.770095e-04
2.523945e-04
2.247409e-04
1.950842e-04
1.641576e-04
1.324558e-04
1.003126e-04
6.797380e-05
3.579290e-05
1.919678e-05
2.407151e-04
2.563202e-04
2.802443e-04
2.939923e-04
2.981859e-04
2.938455e-04
2.823054e-04
2.649629e-04
2.431629e-04
2.180360e-04
1.905041e-04
1.612787e-04
1.308974e-04
9.977210e-05
6.824644e-05
3.678624e-05
2.050158e-05
2.385999e-04
2.517481e-04
2.711352e-04
2.823854e-04
2.858812e-04
2.822011e-04
2.721702e-04
2.567528e-04
2.369279e-04
2.136175e-04
1.876291e-04
1.596403e-04
1.302040e-04
9.977479e-05
6.875381e-05
3.768458e-05
2.154647e-05
2.420484e-04
2.527346e-04
2.679655e-04
2.768854e-04
2.795453e-04
2.761000e-04
2.669561e-04
2.527239e-04
2.341331e-04
2.119446e-04
1.868862e-04
1.596102e-04
1.306738e-04
1.005439e-04
6.963656e-05
3.851838e-05
2.229706e-05
2.500387e-04
2.581336e-04
2.696540e-04
2.766903e-04
2.787192e-04
2.754005e-04
2.667594e-04
2.531443e-04
2.351245e-04
2.133817e-04
1.886181e-04
1.614911e-04
1.325728e-04
1.023213e-04
7.108324e-05
3.940852e-05
2.284098e-05
2.607189e-04
2.662230e-04
2.749212e-04
2.810454e-04
2.830956e-04
2.801190e-04
2.718004e-04
2.583351e-04
2.402538e-04
2.182624e-04
1.931162e-04
1.655307e-04
1.361183e-04
1.053766e-04
7.349970e-05
4.054735e-05
2.311785e-05
2.705972e-04
2.743441e-04
2.823203e-04
2.894415e-04
2.927472e-04
2.906264e-04
2.825628e-04
2.687818e-04
2.499465e-04
2.269262e-04
2.006325e-04
1.719077e-04
1.414616e-04
1.098031e-04
7.754917e-05
4.373297e-05
2.513825e-05
2.747087e-04
2.787483e-04
2.886455e-04
2.985761e-04
3.042845e-04
3.037513e-04
2.964290e-04
2.826733e-04
2.633391e-04
2.394952e-04
2.122310e-04
1.825332e-04
1.512095e-04
1.188679e-04
8.589555e-05
5.495405e-05
4.061413e-05
</DataArray>
</PointData>
</Piece>
</ImageData>
</VTKFile>
