<?xml version="1.0"?>
<VTKFile type="ImageData" version="1.0" byte_order="LittleEndian" header_type="UInt64">
<ImageData WholeExtent= "0 2 0 2 0 2" Origin= "0.000000e+00 0.000000e+00 0.000000e+00" Spacing= "5.000000e-01 5.000000e-01 5.000000e-01" >
<Piece Extent= "0 2 0 2 0 2">
<PointData>
<DataArray type="Float64" Name="velocity" NumberOfComponents="3" format="ascii">
1.020000e+02 0.000000e+00 0.000000e+00
0.000000e+00 0.000000e+00 0.000000e+00
0.000000e+00 0.000000e+00 0.000000e+00
0.000000e+00 0.000000e+00 0.000000e+00
0.000000e+00 0.000000e+00 0.000000e+00
0.000000e+00 0.000000e+00 0.000000e+00
0.000000e+00 0.000000e+00 0.000000e+00
0.000000e+00 0.000000e+00 0.000000e+00
0.000000e+00 0.000000e+00 0.000000e+00
0.000000e+00 0.000000e+00 0.000000e+00
0.000000e+00 0.000000e+00 0.000000e+00
0.000000e+00 0.000000e+00 0.000000e+00
0.000000e+00 0.000000e+00 0.000000e+00
2.000000e+00 2.000000e+00 2.000000e+00
2.000000e+00 2.000000e+00 2.000000e+00
0.000000e+00 0.000000e+00 0.000000e+00
0.000000e+00 0.000000e+00 0.000000e+00
0.000000e+00 0.000000e+00 0.000000e+00
0.000000e+00 0.000000e+00 0.000000e+00
0.000000e+00 0.000000e+00 0.000000e+00
0.000000e+00 0.000000e+00 0.000000e+00
0.000000e+00 0.000000e+00 0.000000e+00
0.000000e+00 0.000000e+00 0.000000e+00
0.000000e+00 0.000000e+00 0.000000e+00
0.000000e+00 0.000000e+00 0.000000e+00
0.000000e+00 0.000000e+00 0.000000e+00
0.000000e+00 0.000000e+00 0.000000e+00
</DataArray>
<DataArray type="Float64" Name="pressure" NumberOfComponents="1" format="ascii">
0.000000e+00
2.000000e+00
2.000000e+00
2.000000e+00
2.000000e+00
2.000000e+00
2.000000e+00
2.000000e+00
0.000000e+00
2.000000e+00
2.000000e+00
2.000000e+00
0.000000e+00
0.000000e+00
0.000000e+00
2.000000e+00
2.000000e+00
2.000000e+00
0.000000e+00
2.000000e+00
2.000000e+00
2.000000e+00
0.000000e+00
2.000000e+00
2.000000e+00
2.000000e+00
0.000000e+00
</DataArray>
</PointData>
</Piece>
</ImageData>
</VTKFile>
