<?xml version="1.0"?>
<VTKFile type="ImageData" version="1.0" byte_order="LittleEndian" header_type="UInt64">
<ImageData WholeExtent= "0 2 0 2 0 2" Origin= "0.000000e+00 0.000000e+00 0.000000e+00" Spacing= "5.000000e-01 5.000000e-01 5.000000e-01" >
<Piece Extent= "0 2 0 2 0 2">
<PointData>
<DataArray type="Float64" Name="velocity" NumberOfComponents="3" format="ascii">
0.000000e+00 0.000000e+00 0.000000e+00
0.000000e+00 0.000000e+00 0.000000e+00
0.000000e+00 0.000000e+00 0.000000e+00
0.000000e+00 0.000000e+00 0.000000e+00
0.000000e+00 0.000000e+00 0.000000e+00
0.000000e+00 0.000000e+00 0.000000e+00
0.000000e+00 0.000000e+00 0.000000e+00
0.000000e+00 0.000000e+00 0.000000e+00
0.000000e+00 0.000000e+00 0.000000e+00
0.000000e+00 0.000000e+00 0.000000e+00
0.000000e+00 0.000000e+00 0.000000e+00
0.000000e+00 0.000000e+00 0.000000e+00
0.000000e+00 0.000000e+00 0.000000e+00
1.519749e-01 -1.152255e-02 -1.152255e-02
8.936613e-01 -1.951794e-03 -1.951794e-03
0.000000e+00 0.000000e+00 0.000000e+00
0.000000e+00 0.000000e+00 0.000000e+00
0.000000e+00 0.000000e+00 0.000000e+00
0.000000e+00 0.000000e+00 0.000000e+00
0.000000e+00 0.000000e+00 0.000000e+00
0.000000e+00 0.000000e+00 0.000000e+00
0.000000e+00 0.000000e+00 0.000000e+00
0.000000e+00 0.000000e+00 0.000000e+00
0.000000e+00 0.000000e+00 0.000000e+00
0.000000e+00 0.000000e+00 0.000000e+00
0.000000e+00 0.000000e+00 0.000000e+00
0.000000e+00 0.000000e+00 0.000000e+00
</DataArray>
<DataArray type="Float64" Name="pressure" NumberOfComponents="1" format="ascii">
0.000000e+00
3.108921e+00
2.466805e+00
3.812865e+00
2.922780e+00
2.402390e+00
3.577843e+00
3.087049e+00
2.489917e+00
3.812865e+00
2.922780e+00
2.402390e+00
3.132201e+00
2.940396e+00
1.010354e+00
3.792033e+00
3.056364e+00
2.376354e+00
3.577843e+00
3.087049e+00
2.489917e+00
3.792033e+00
3.056364e+00
2.376354e+00
3.603557e+00
3.065177e+00
2.513028e+00
</DataArray>
</PointData>
</Piece>
</ImageData>
</VTKFile>
