<?xml version="1.0"?>
<VTKFile type="ImageData" version="1.0" byte_order="LittleEndian" header_type="UInt64">
<ImageData WholeExtent= "0 2 0 2 0 1" Origin= "0.000000e+00 0.000000e+00 5.000000e-01" Spacing= "5.000000e-01 5.000000e-01 5.000000e-01" >
<Piece Extent= "0 2 0 2 0 1">
<PointData>
<DataArray type="Float64" Name="velocity" NumberOfComponents="3" format="ascii">
0.000000e+00 0.000000e+00 0e0
0.000000e+00 0.000000e+00 0e0
0.000000e+00 0.000000e+00 0e0
0.000000e+00 0.000000e+00 0e0
8.326118e-03 3.860050e-03 0e0
3.562320e-02 6.538497e-04 0e0
0.000000e+00 0.000000e+00 0e0
0.000000e+00 0.000000e+00 0e0
0.000000e+00 0.000000e+00 0e0
0.000000e+00 0.000000e+00 0e0
0.000000e+00 0.000000e+00 0e0
0.000000e+00 0.000000e+00 0e0
0.000000e+00 0.000000e+00 0e0
8.326118e-03 3.860050e-03 0e0
3.562320e-02 6.538497e-04 0e0
0.000000e+00 0.000000e+00 0e0
0.000000e+00 0.000000e+00 0e0
0.000000e+00 0.000000e+00 0e0
</DataArray>
<DataArray type="Float64" Name="pressure" NumberOfComponents="1" format="ascii">
1.067204e-01
1.597764e-01
8.898561e-02
1.713277e-01
9.463776e-02
4.873276e-02
1.136989e-01
1.150265e-01
9.770784e-02
1.067204e-01
1.597764e-01
8.898561e-02
1.713277e-01
9.463776e-02
4.873276e-02
1.136989e-01
1.150265e-01
9.770784e-02
</DataArray>
</PointData>
</Piece>
</ImageData>
</VTKFile>
