<?xml version="1.0"?>
<VTKFile type="ImageData" version="1.0" byte_order="LittleEndian" header_type="UInt64">
<ImageData WholeExtent= "0 2 0 2 0 1" Origin= "0.000000e+00 0.000000e+00 5.000000e-01" Spacing= "5.000000e-01 5.000000e-01 5.000000e-01" >
<Piece Extent= "0 2 0 2 0 1">
<PointData>
<DataArray type="Float64" Name="velocity" NumberOfComponents="3" format="ascii">
0.000000e+00 0.000000e+00 0e0
0.000000e+00 0.000000e+00 0e0
0.000000e+00 0.000000e+00 0e0
1.000000e+00 0.000000e+00 0e0
1.519749e-01 -1.152255e-02 0e0
8.936613e-01 -1.951794e-03 0e0
0.000000e+00 0.000000e+00 0e0
0.000000e+00 0.000000e+00 0e0
0.000000e+00 0.000000e+00 0e0
0.000000e+00 0.000000e+00 0e0
0.000000e+00 0.000000e+00 0e0
0.000000e+00 0.000000e+00 0e0
1.000000e+00 0.000000e+00 0e0
1.519749e-01 -1.152255e-02 0e0
8.936613e-01 -1.951794e-03 0e0
0.000000e+00 0.000000e+00 0e0
0.000000e+00 0.000000e+00 0e0
0.000000e+00 0.000000e+00 0e0
</DataArray>
<DataArray type="Float64" Name="pressure" NumberOfComponents="1" format="ascii">
3.812865e+00
2.922780e+00
2.402390e+00
3.132201e+00
2.940396e+00
1.010354e+00
3.792033e+00
3.056364e+00
2.376354e+00
3.812865e+00
2.922780e+00
2.402390e+00
3.132201e+00
2.940396e+00
1.010354e+00
3.792033e+00
3.056364e+00
2.376354e+00
</DataArray>
</PointData>
</Piece>
</ImageData>
</VTKFile>
