<?xml version="1.0"?>
<VTKFile type="ImageData" version="1.0" byte_order="LittleEndian" header_type="UInt64">
<ImageData WholeExtent= "0 32 0 32 0 1" Origin= "0.000000e+00 0.000000e+00 5.000000e-01" Spacing= "3.125000e-02 3.125000e-02 3.125000e-02" >
<Piece Extent= "0 32 0 32 0 1">
<PointData>
<DataArray type="Float64" Name="velocity" NumberOfComponents="3" format="ascii">
0.000000e+00 0.000000e+00 0e0
0.000000e+00 0.000000e+00 0e0
0.000000e+00 0.000000e+00 0e0
0.000000e+00 0.000000e+00 0e0
0.000000e+00 0.000000e+00 0e0
0.000000e+00 0.000000e+00 0e0
0.000000e+00 0.000000e+00 0e0
0.000000e+00 0.000000e+00 0e0
0.000000e+00 0.000000e+00 0e0
0.000000e+00 0.000000e+00 0e0
0.000000e+00 0.000000e+00 0e0
0.000000e+00 0.000000e+00 0e0
0.000000e+00 0.000000e+00 0e0
0.000000e+00 0.000000e+00 0e0
0.000000e+00 0.000000e+00 0e0
0.000000e+00 0.000000e+00 0e0
0.000000e+00 0.000000e+00 0e0
0.000000e+00 0.000000e+00 0e0
0.000000e+00 0.000000e+00 0e0
0.000000e+00 0.000000e+00 0e0
0.000000e+00 0.000000e+00 0e0
0.000000e+00 0.000000e+00 0e0
0.000000e+00 0.000000e+00 0e0
0.000000e+00 0.000000e+00 0e0
0.000000e+00 0.000000e+00 0e0
0.000000e+00 0.000000e+00 0e0
0.000000e+00 0.000000e+00 0e0
0.000000e+00 0.000000e+00 0e0
0.000000e+00 0.000000e+00 0e0
0.000000e+00 0.000000e+00 0e0
0.000000e+00 0.000000e+00 0e0
0.000000e+00 0.000000e+00 0e0
0.000000e+00 0.000000e+00 0e0
0.000000e+00 0.000000e+00 0e0
-4.407006e-01 0.000000e+00 0e0
-8.823252e-01 0.000000e+00 0e0
-1.325705e+00 0.000000e+00 0e0
-1.771481e+00 0.000000e+00 0e0
-2.220004e+00 0.000000e+00 0e0
-2.671216e+00 0.000000e+00 0e0
-3.124533e+00 0.000000e+00 0e0
-3.578709e+00 0.000000e+00 0e0
-4.031710e+00 0.000000e+00 0e0
-4.480587e+00 0.000000e+00 0e0
-4.921372e+00 0.000000e+00 0e0
-5.348997e+00 0.000000e+00 0e0
-5.757264e+00 0.000000e+00 0e0
-6.138857e+00 0.000000e+00 0e0
-6.485430e+00 0.000000e+00 0e0
-6.787750e+00 0.000000e+00 0e0
-7.035921e+00 0.000000e+00 0e0
-7.219677e+00 0.000000e+00 0e0
-7.328737e+00 0.000000e+00 0e0
-7.353221e+00 0.000000e+00 0e0
-7.284112e+00 0.000000e+00 0e0
-7.113743e+00 0.000000e+00 0e0
-6.836307e+00 0.000000e+00 0e0
-6.448348e+00 0.000000e+00 0e0
-5.949229e+00 0.000000e+00 0e0
-5.341526e+00 0.000000e+00 0e0
-4.631317e+00 0.000000e+00 0e0
-3.828320e+00 0.000000e+00 0e0
-2.945825e+00 0.000000e+00 0e0
-2.000402e+00 0.000000e+00 0e0
-1.011365e+00 0.000000e+00 0e0
0.000000e+00 0.000000e+00 0e0
0.000000e+00 0.000000e+00 0e0
-8.842105e-01 0.000000e+00 0e0
-1.770359e+00 0.000000e+00 0e0
-2.660200e+00 0.000000e+00 0e0
-3.555119e+00 0.000000e+00 0e0
-4.455925e+00 0.000000e+00 0e0
-5.362623e+00 0.000000e+00 0e0
-6.274164e+00 0.000000e+00 0e0
-7.188179e+00 0.000000e+00 0e0
-8.100706e+00 0.000000e+00 0e0
-9.005929e+00 0.000000e+00 0e0
-9.895956e+00 0.000000e+00 0e0
-1.076064e+01 0.000000e+00 0e0
-1.158753e+01 0.000000e+00 0e0
-1.236184e+01 0.000000e+00 0e0
-1.306666e+01 0.000000e+00 0e0
-1.368323e+01 0.000000e+00 0e0
-1.419141e+01 0.000000e+00 0e0
-1.457021e+01 0.000000e+00 0e0
-1.479861e+01 0.000000e+00 0e0
-1.485632e+01 0.000000e+00 0e0
-1.472477e+01 0.000000e+00 0e0
-1.438810e+01 0.000000e+00 0e0
-1.383419e+01 0.000000e+00 0e0
-1.305566e+01 0.000000e+00 0e0
-1.205085e+01 0.000000e+00 0e0
-1.082466e+01 0.000000e+00 0e0
-9.389169e+00 0.000000e+00 0e0
-7.763927e+00 0.000000e+00 0e0
-5.975899e+00 0.000000e+00 0e0
-4.058869e+00 0.000000e+00 0e0
-2.052352e+00 0.000000e+00 0e0
0.000000e+00 0.000000e+00 0e0
0.000000e+00 0.000000e+00 0e0
-1.333242e+00 0.000000e+00 0e0
-2.669610e+00 0.000000e+00 0e0
-4.011966e+00 0.000000e+00 0e0
-5.362640e+00 0.000000e+00 0e0
-6.723123e+00 0.000000e+00 0e0
-8.093720e+00 0.000000e+00 0e0
-9.473173e+00 0.000000e+00 0e0
-1.085824e+01 0.000000e+00 0e0
-1.224325e+01 0.000000e+00 0e0
-1.361971e+01 0.000000e+00 0e0
-1.497591e+01 0.000000e+00 0e0
-1.629662e+01 0.000000e+00 0e0
-1.756298e+01 0.000000e+00 0e0
-1.875248e+01 0.000000e+00 0e0
-1.983922e+01 0.000000e+00 0e0
-2.079431e+01 0.000000e+00 0e0
-2.158659e+01 0.000000e+00 0e0
-2.218351e+01 0.000000e+00 0e0
-2.255230e+01 0.000000e+00 0e0
-2.266124e+01 0.000000e+00 0e0
-2.248111e+01 0.000000e+00 0e0
-2.198677e+01 0.000000e+00 0e0
-2.115873e+01 0.000000e+00 0e0
-1.998475e+01 0.000000e+00 0e0
-1.846136e+01 0.000000e+00 0e0
-1.659522e+01 0.000000e+00 0e0
-1.440416e+01 0.000000e+00 0e0
-1.191781e+01 0.000000e+00 0e0
-9.177557e+00 0.000000e+00 0e0
-6.235688e+00 0.000000e+00 0e0
-3.153747e+00 0.000000e+00 0e0
0.000000e+00 0.000000e+00 0e0
0.000000e+00 0.000000e+00 0e0
-1.790312e+00 0.000000e+00 0e0
-3.585188e+00 0.000000e+00 0e0
-5.388864e+00 0.000000e+00 0e0
-7.204909e+00 0.000000e+00 0e0
-9.035826e+00 0.000000e+00 0e0
-1.088260e+01 0.000000e+00 0e0
-1.274415e+01 0.000000e+00 0e0
-1.461678e+01 0.000000e+00 0e0
-1.649349e+01 0.000000e+00 0e0
-1.836340e+01 0.000000e+00 0e0
-2.021117e+01 0.000000e+00 0e0
-2.201653e+01 0.000000e+00 0e0
-2.375404e+01 0.000000e+00 0e0
-2.539305e+01 0.000000e+00 0e0
-2.689800e+01 0.000000e+00 0e0
-2.822896e+01 0.000000e+00 0e0
-2.934260e+01 0.000000e+00 0e0
-3.019347e+01 0.000000e+00 0e0
-3.073553e+01 0.000000e+00 0e0
-3.092399e+01 0.000000e+00 0e0
-3.071735e+01 0.000000e+00 0e0
-3.007949e+01 0.000000e+00 0e0
-2.898195e+01 0.000000e+00 0e0
-2.740612e+01 0.000000e+00 0e0
-2.534545e+01 0.000000e+00 0e0
-2.280739e+01 0.000000e+00 0e0
-1.981511e+01 0.000000e+00 0e0
-1.640851e+01 0.000000e+00 0e0
-1.264443e+01 0.000000e+00 0e0
-8.595693e+00 0.000000e+00 0e0
-4.348727e+00 0.000000e+00 0e0
0.000000e+00 0.000000e+00 0e0
0.000000e+00 0.000000e+00 0e0
-2.257654e+00 0.000000e+00 0e0
-4.521615e+00 0.000000e+00 0e0
-6.797827e+00 0.000000e+00 0e0
-9.091480e+00 0.000000e+00 0e0
-1.140654e+01 0.000000e+00 0e0
-1.374517e+01 0.000000e+00 0e0
-1.610707e+01 0.000000e+00 0e0
-1.848864e+01 0.000000e+00 0e0
-2.088215e+01 0.000000e+00 0e0
-2.327483e+01 0.000000e+00 0e0
-2.564802e+01 0.000000e+00 0e0
-2.797652e+01 0.000000e+00 0e0
-3.022812e+01 0.000000e+00 0e0
-3.236350e+01 0.000000e+00 0e0
-3.433653e+01 0.000000e+00 0e0
-3.609499e+01 0.000000e+00 0e0
-3.758181e+01 0.000000e+00 0e0
-3.873671e+01 0.000000e+00 0e0
-3.949828e+01 0.000000e+00 0e0
-3.980645e+01 0.000000e+00 0e0
-3.960508e+01 0.000000e+00 0e0
-3.884485e+01 0.000000e+00 0e0
-3.748607e+01 0.000000e+00 0e0
-3.550168e+01 0.000000e+00 0e0
-3.288012e+01 0.000000e+00 0e0
-2.962819e+01 0.000000e+00 0e0
-2.577347e+01 0.000000e+00 0e0
-2.136623e+01 0.000000e+00 0e0
-1.648005e+01 0.000000e+00 0e0
-1.121091e+01 0.000000e+00 0e0
-5.674262e+00 0.000000e+00 0e0
0.000000e+00 0.000000e+00 0e0
0.000000e+00 0.000000e+00 0e0
-2.737123e+00 0.000000e+00 0e0
-5.482631e+00 0.000000e+00 0e0
-8.244551e+00 0.000000e+00 0e0
-1.103015e+01 0.000000e+00 0e0
-1.384539e+01 0.000000e+00 0e0
-1.669432e+01 0.000000e+00 0e0
-1.957815e+01 0.000000e+00 0e0
-2.249426e+01 0.000000e+00 0e0
-2.543501e+01 0.000000e+00 0e0
-2.838649e+01 0.000000e+00 0e0
-3.132729e+01 0.000000e+00 0e0
-3.422749e+01 0.000000e+00 0e0
-3.704794e+01 0.000000e+00 0e0
-3.974003e+01 0.000000e+00 0e0
-4.224592e+01 0.000000e+00 0e0
-4.449945e+01 0.000000e+00 0e0
-4.642768e+01 0.000000e+00 0e0
-4.795299e+01 0.000000e+00 0e0
-4.899583e+01 0.000000e+00 0e0
-4.947787e+01 0.000000e+00 0e0
-4.932539e+01 0.000000e+00 0e0
-4.847289e+01 0.000000e+00 0e0
-4.686661e+01 0.000000e+00 0e0
-4.446827e+01 0.000000e+00 0e0
-4.125874e+01 0.000000e+00 0e0
-3.724186e+01 0.000000e+00 0e0
-3.244809e+01 0.000000e+00 0e0
-2.693760e+01 0.000000e+00 0e0
-2.080196e+01 0.000000e+00 0e0
-1.416370e+01 0.000000e+00 0e0
-7.172809e+00 0.000000e+00 0e0
0.000000e+00 0.000000e+00 0e0
0.000000e+00 0.000000e+00 0e0
-3.230116e+00 0.000000e+00 0e0
-6.471017e+00 0.000000e+00 0e0
-9.733192e+00 0.000000e+00 0e0
-1.302646e+01 0.000000e+00 0e0
-1.635947e+01 0.000000e+00 0e0
-1.973892e+01 0.000000e+00 0e0
-2.316862e+01 0.000000e+00 0e0
-2.664807e+01 0.000000e+00 0e0
-3.017095e+01 0.000000e+00 0e0
-3.372333e+01 0.000000e+00 0e0
-3.728193e+01 0.000000e+00 0e0
-4.081258e+01 0.000000e+00 0e0
-4.426915e+01 0.000000e+00 0e0
-4.759298e+01 0.000000e+00 0e0
-5.071314e+01 0.000000e+00 0e0
-5.354743e+01 0.000000e+00 0e0
-5.600424e+01 0.000000e+00 0e0
-5.798537e+01 0.000000e+00 0e0
-5.938947e+01 0.000000e+00 0e0
-6.011618e+01 0.000000e+00 0e0
-6.007050e+01 0.000000e+00 0e0
-5.916716e+01 0.000000e+00 0e0
-5.733491e+01 0.000000e+00 0e0
-5.452085e+01 0.000000e+00 0e0
-5.069484e+01 0.000000e+00 0e0
-4.585447e+01 0.000000e+00 0e0
-4.003032e+01 0.000000e+00 0e0
-3.329098e+01 0.000000e+00 0e0
-2.574682e+01 0.000000e+00 0e0
-1.755073e+01 0.000000e+00 0e0
-8.894508e+00 0.000000e+00 0e0
0.000000e+00 0.000000e+00 0e0
0.000000e+00 0.000000e+00 0e0
-3.737499e+00 0.000000e+00 0e0
-7.488433e+00 0.000000e+00 0e0
-1.126607e+01 0.000000e+00 0e0
-1.508327e+01 0.000000e+00 0e0
-1.895204e+01 0.000000e+00 0e0
-2.288278e+01 0.000000e+00 0e0
-2.688317e+01 0.000000e+00 0e0
-3.095645e+01 0.000000e+00 0e0
-3.509939e+01 0.000000e+00 0e0
-3.929974e+01 0.000000e+00 0e0
-4.353376e+01 0.000000e+00 0e0
-4.776389e+01 0.000000e+00 0e0
-5.193708e+01 0.000000e+00 0e0
-5.598389e+01 0.000000e+00 0e0
-5.981858e+01 0.000000e+00 0e0
-6.334024e+01 0.000000e+00 0e0
-6.643507e+01 0.000000e+00 0e0
-6.897993e+01 0.000000e+00 0e0
-7.084693e+01 0.000000e+00 0e0
-7.190890e+01 0.000000e+00 0e0
-7.204502e+01 0.000000e+00 0e0
-7.114619e+01 0.000000e+00 0e0
-6.911987e+01 0.000000e+00 0e0
-6.589465e+01 0.000000e+00 0e0
-6.142518e+01 0.000000e+00 0e0
-5.569814e+01 0.000000e+00 0e0
-4.873954e+01 0.000000e+00 0e0
-4.062295e+01 0.000000e+00 0e0
-3.147682e+01 0.000000e+00 0e0
-2.148825e+01 0.000000e+00 0e0
-1.090019e+01 0.000000e+00 0e0
0.000000e+00 0.000000e+00 0e0
0.000000e+00 0.000000e+00 0e0
-4.259531e+00 0.000000e+00 0e0
-8.535249e+00 0.000000e+00 0e0
-1.284339e+01 0.000000e+00 0e0
-1.720022e+01 0.000000e+00 0e0
-2.162179e+01 0.000000e+00 0e0
-2.612334e+01 0.000000e+00 0e0
-3.071808e+01 0.000000e+00 0e0
-3.541520e+01 0.000000e+00 0e0
-4.021704e+01 0.000000e+00 0e0
-4.511566e+01 0.000000e+00 0e0
-5.008905e+01 0.000000e+00 0e0
-5.509773e+01 0.000000e+00 0e0
-6.008214e+01 0.000000e+00 0e0
-6.496124e+01 0.000000e+00 0e0
-6.963244e+01 0.000000e+00 0e0
-7.397280e+01 0.000000e+00 0e0
-7.784169e+01 0.000000e+00 0e0
-8.108529e+01 0.000000e+00 0e0
-8.354279e+01 0.000000e+00 0e0
-8.505396e+01 0.000000e+00 0e0
-8.546679e+01 0.000000e+00 0e0
-8.464402e+01 0.000000e+00 0e0
-8.246823e+01 0.000000e+00 0e0
-7.884580e+01 0.000000e+00 0e0
-7.371141e+01 0.000000e+00 0e0
-6.703445e+01 0.000000e+00 0e0
-5.882885e+01 0.000000e+00 0e0
-4.916592e+01 0.000000e+00 0e0
-3.818823e+01 0.000000e+00 0e0
-2.611966e+01 0.000000e+00 0e0
-1.326581e+01 0.000000e+00 0e0
0.000000e+00 0.000000e+00 0e0
0.000000e+00 0.000000e+00 0e0
-4.795754e+00 0.000000e+00 0e0
-9.610331e+00 0.000000e+00 0e0
-1.446288e+01 0.000000e+00 0e0
-1.937320e+01 0.000000e+00 0e0
-2.436191e+01 0.000000e+00 0e0
-2.945025e+01 0.000000e+00 0e0
-3.465899e+01 0.000000e+00 0e0
-4.000617e+01 0.000000e+00 0e0
-4.550342e+01 0.000000e+00 0e0
-5.115102e+01 0.000000e+00 0e0
-5.693229e+01 0.000000e+00 0e0
-6.280818e+01 0.000000e+00 0e0
-6.871344e+01 0.000000e+00 0e0
-7.455455e+01 0.000000e+00 0e0
-8.020966e+01 0.000000e+00 0e0
-8.552978e+01 0.000000e+00 0e0
-9.034148e+01 0.000000e+00 0e0
-9.445232e+01 0.000000e+00 0e0
-9.765948e+01 0.000000e+00 0e0
-9.976116e+01 0.000000e+00 0e0
-1.005676e+02 0.000000e+00 0e0
-9.990967e+01 0.000000e+00 0e0
-9.764285e+01 0.000000e+00 0e0
-9.364912e+01 0.000000e+00 0e0
-8.783874e+01 0.000000e+00 0e0
-8.015581e+01 0.000000e+00 0e0
-7.059031e+01 0.000000e+00 0e0
-5.919767e+01 0.000000e+00 0e0
-4.612360e+01 0.000000e+00 0e0
-3.162704e+01 0.000000e+00 0e0
-1.608957e+01 0.000000e+00 0e0
0.000000e+00 0.000000e+00 0e0
0.000000e+00 0.000000e+00 0e0
-5.344776e+00 0.000000e+00 0e0
-1.071065e+01 0.000000e+00 0e0
-1.611926e+01 0.000000e+00 0e0
-2.159360e+01 0.000000e+00 0e0
-2.715896e+01 0.000000e+00 0e0
-3.284356e+01 0.000000e+00 0e0
-3.867800e+01 0.000000e+00 0e0
-4.469302e+01 0.000000e+00 0e0
-5.091480e+01 0.000000e+00 0e0
-5.735807e+01 0.000000e+00 0e0
-6.401726e+01 0.000000e+00 0e0
-7.085780e+01 0.000000e+00 0e0
-7.780986e+01 0.000000e+00 0e0
-8.476617e+01 0.000000e+00 0e0
-9.158278e+01 0.000000e+00 0e0
-9.808021e+01 0.000000e+00 0e0
-1.040452e+02 0.000000e+00 0e0
-1.092349e+02 0.000000e+00 0e0
-1.133908e+02 0.000000e+00 0e0
-1.162559e+02 0.000000e+00 0e0
-1.175953e+02 0.000000e+00 0e0
-1.172058e+02 0.000000e+00 0e0
-1.149181e+02 0.000000e+00 0e0
-1.105917e+02 0.000000e+00 0e0
-1.041101e+02 0.000000e+00 0e0
-9.538282e+01 0.000000e+00 0e0
-8.435872e+01 0.000000e+00 0e0
-7.105304e+01 0.000000e+00 0e0
-5.559000e+01 0.000000e+00 0e0
-3.825051e+01 0.000000e+00 0e0
-1.950444e+01 0.000000e+00 0e0
0.000000e+00 0.000000e+00 0e0
0.000000e+00 0.000000e+00 0e0
-5.903753e+00 0.000000e+00 0e0
-1.183036e+01 0.000000e+00 0e0
-1.780311e+01 0.000000e+00 0e0
-2.384702e+01 0.000000e+00 0e0
-2.999122e+01 0.000000e+00 0e0
-3.627127e+01 0.000000e+00 0e0
-4.272993e+01 0.000000e+00 0e0
-4.941530e+01 0.000000e+00 0e0
-5.637563e+01 0.000000e+00 0e0
-6.364981e+01 0.000000e+00 0e0
-7.125364e+01 0.000000e+00 0e0
-7.916405e+01 0.000000e+00 0e0
-8.730779e+01 0.000000e+00 0e0
-9.556029e+01 0.000000e+00 0e0
-1.037514e+02 0.000000e+00 0e0
-1.116692e+02 0.000000e+00 0e0
-1.190529e+02 0.000000e+00 0e0
-1.255945e+02 0.000000e+00 0e0
-1.309511e+02 0.000000e+00 0e0
-1.347902e+02 0.000000e+00 0e0
-1.368191e+02 0.000000e+00 0e0
-1.368073e+02 0.000000e+00 0e0
-1.345723e+02 0.000000e+00 0e0
-1.299613e+02 0.000000e+00 0e0
-1.228336e+02 0.000000e+00 0e0
-1.130554e+02 0.000000e+00 0e0
-1.005116e+02 0.000000e+00 0e0
-8.513868e+01 0.000000e+00 0e0
-6.698907e+01 0.000000e+00 0e0
-4.632409e+01 0.000000e+00 0e0
-2.370303e+01 0.000000e+00 0e0
0.000000e+00 0.000000e+00 0e0
0.000000e+00 0.000000e+00 0e0
-6.467159e+00 0.000000e+00 0e0
-1.295880e+01 0.000000e+00 0e0
-1.949839e+01 0.000000e+00 0e0
-2.611051e+01 0.000000e+00 0e0
-3.282547e+01 0.000000e+00 0e0
-3.968529e+01 0.000000e+00 0e0
-4.674674e+01 0.000000e+00 0e0
-5.408059e+01 0.000000e+00 0e0
-6.176647e+01 0.000000e+00 0e0
-6.988266e+01 0.000000e+00 0e0
-7.848515e+01 0.000000e+00 0e0
-8.757804e+01 0.000000e+00 0e0
-9.708478e+01 0.000000e+00 0e0
-1.068494e+02 0.000000e+00 0e0
-1.166680e+02 0.000000e+00 0e0
-1.262992e+02 0.000000e+00 0e0
-1.354501e+02 0.000000e+00 0e0
-1.437073e+02 0.000000e+00 0e0
-1.506061e+02 0.000000e+00 0e0
-1.556657e+02 0.000000e+00 0e0
-1.585440e+02 0.000000e+00 0e0
-1.589990e+02 0.000000e+00 0e0
-1.568749e+02 0.000000e+00 0e0
-1.520289e+02 0.000000e+00 0e0
-1.443037e+02 0.000000e+00 0e0
-1.335163e+02 0.000000e+00 0e0
-1.194647e+02 0.000000e+00 0e0
-1.019550e+02 0.000000e+00 0e0
-8.087528e+01 0.000000e+00 0e0
-5.635723e+01 0.000000e+00 0e0
-2.899875e+01 0.000000e+00 0e0
0.000000e+00 0.000000e+00 0e0
0.000000e+00 0.000000e+00 0e0
-7.024152e+00 0.000000e+00 0e0
-1.407569e+01 0.000000e+00 0e0
-2.117699e+01 0.000000e+00 0e0
-2.834612e+01 0.000000e+00 0e0
-3.560959e+01 0.000000e+00 0e0
-4.301270e+01 0.000000e+00 0e0
-5.062751e+01 0.000000e+00 0e0
-5.855240e+01 0.000000e+00 0e0
-6.690773e+01 0.000000e+00 0e0
-7.582895e+01 0.000000e+00 0e0
-8.545157e+01 0.000000e+00 0e0
-9.584387e+01 0.000000e+00 0e0
-1.069386e+02 0.000000e+00 0e0
-1.184922e+02 0.000000e+00 0e0
-1.302097e+02 0.000000e+00 0e0
-1.419025e+02 0.000000e+00 0e0
-1.532567e+02 0.000000e+00 0e0
-1.638376e+02 0.000000e+00 0e0
-1.727182e+02 0.000000e+00 0e0
-1.793154e+02 0.000000e+00 0e0
-1.831201e+02 0.000000e+00 0e0
-1.840619e+02 0.000000e+00 0e0
-1.820641e+02 0.000000e+00 0e0
-1.770228e+02 0.000000e+00 0e0
-1.687742e+02 0.000000e+00 0e0
-1.570859e+02 0.000000e+00 0e0
-1.416518e+02 0.000000e+00 0e0
-1.221066e+02 0.000000e+00 0e0
-9.805904e+01 0.000000e+00 0e0
-6.922030e+01 0.000000e+00 0e0
-3.599021e+01 0.000000e+00 0e0
0.000000e+00 0.000000e+00 0e0
0.000000e+00 0.000000e+00 0e0
-7.552556e+00 0.000000e+00 0e0
-1.514222e+01 0.000000e+00 0e0
-2.278466e+01 0.000000e+00 0e0
-3.048570e+01 0.000000e+00 0e0
-3.825336e+01 0.000000e+00 0e0
-4.613359e+01 0.000000e+00 0e0
-5.421526e+01 0.000000e+00 0e0
-6.262771e+01 0.000000e+00 0e0
-7.153651e+01 0.000000e+00 0e0
-8.114608e+01 0.000000e+00 0e0
-9.170543e+01 0.000000e+00 0e0
-1.035142e+02 0.000000e+00 0e0
-1.165254e+02 0.000000e+00 0e0
-1.303468e+02 0.000000e+00 0e0
-1.442522e+02 0.000000e+00 0e0
-1.580296e+02 0.000000e+00 0e0
-1.725453e+02 0.000000e+00 0e0
-1.861858e+02 0.000000e+00 0e0
-1.983372e+02 0.000000e+00 0e0
-2.063086e+02 0.000000e+00 0e0
-2.109093e+02 0.000000e+00 0e0
-2.122193e+02 0.000000e+00 0e0
-2.102982e+02 0.000000e+00 0e0
-2.050846e+02 0.000000e+00 0e0
-1.964151e+02 0.000000e+00 0e0
-1.840111e+02 0.000000e+00 0e0
-1.674734e+02 0.000000e+00 0e0
-1.462537e+02 0.000000e+00 0e0
-1.196271e+02 0.000000e+00 0e0
-8.663721e+01 0.000000e+00 0e0
-4.606494e+01 0.000000e+00 0e0
0.000000e+00 0.000000e+00 0e0
0.000000e+00 0.000000e+00 0e0
-8.007521e+00 0.000000e+00 0e0
-1.607484e+01 0.000000e+00 0e0
-2.421984e+01 0.000000e+00 0e0
-3.238781e+01 0.000000e+00 0e0
-4.057454e+01 0.000000e+00 0e0
-4.882228e+01 0.000000e+00 0e0
-5.723940e+01 0.000000e+00 0e0
-6.598473e+01 0.000000e+00 0e0
-7.526314e+01 0.000000e+00 0e0
-8.533850e+01 0.000000e+00 0e0
-9.657754e+01 0.000000e+00 0e0
-1.095185e+02 0.000000e+00 0e0
-1.253317e+02 0.000000e+00 0e0
-1.422438e+02 0.000000e+00 0e0
-1.590517e+02 0.000000e+00 0e0
-1.742990e+02 0.000000e+00 0e0
-1.898007e+02 0.000000e+00 0e0
-2.159026e+02 0.000000e+00 0e0
-2.283399e+02 0.000000e+00 0e0
-2.372449e+02 0.000000e+00 0e0
-2.420886e+02 0.000000e+00 0e0
-2.435151e+02 0.000000e+00 0e0
-2.415555e+02 0.000000e+00 0e0
-2.361830e+02 0.000000e+00 0e0
-2.272247e+02 0.000000e+00 0e0
-2.143730e+02 0.000000e+00 0e0
-1.971623e+02 0.000000e+00 0e0
-1.749265e+02 0.000000e+00 0e0
-1.466899e+02 0.000000e+00 0e0
-1.109174e+02 0.000000e+00 0e0
-6.477707e+01 0.000000e+00 0e0
0.000000e+00 0.000000e+00 0e0
0.000000e+00 0.000000e+00 0e0
-8.310304e+00 0.000000e+00 0e0
-1.671442e+01 0.000000e+00 0e0
-2.516825e+01 0.000000e+00 0e0
-3.366636e+01 0.000000e+00 0e0
-4.211325e+01 0.000000e+00 0e0
-5.056276e+01 0.000000e+00 0e0
-5.913755e+01 0.000000e+00 0e0
-6.801608e+01 0.000000e+00 0e0
-7.742273e+01 0.000000e+00 0e0
-8.764729e+01 0.000000e+00 0e0
-9.910026e+01 0.000000e+00 0e0
-1.124926e+02 0.000000e+00 0e0
-1.289836e+02 0.000000e+00 0e0
-1.573958e+02 0.000000e+00 0e0
-1.747563e+02 0.000000e+00 0e0
-1.900562e+02 0.000000e+00 0e0
-2.053398e+02 0.000000e+00 0e0
-2.193923e+02 0.000000e+00 0e0
-2.317466e+02 0.000000e+00 0e0
-2.397836e+02 0.000000e+00 0e0
-2.443481e+02 0.000000e+00 0e0
-2.455365e+02 0.000000e+00 0e0
-2.434106e+02 0.000000e+00 0e0
-2.378998e+02 0.000000e+00 0e0
-2.288172e+02 0.000000e+00 0e0
-2.158441e+02 0.000000e+00 0e0
-1.985076e+02 0.000000e+00 0e0
-1.761274e+02 0.000000e+00 0e0
-1.477074e+02 0.000000e+00 0e0
-1.116776e+02 0.000000e+00 0e0
-6.517848e+01 0.000000e+00 0e0
0.000000e+00 0.000000e+00 0e0
0.000000e+00 0.000000e+00 0e0
-8.375790e+00 0.000000e+00 0e0
-1.681542e+01 0.000000e+00 0e0
-2.540234e+01 0.000000e+00 0e0
-3.391779e+01 0.000000e+00 0e0
-4.240057e+01 0.000000e+00 0e0
-5.083059e+01 0.000000e+00 0e0
-5.935130e+01 0.000000e+00 0e0
-6.814165e+01 0.000000e+00 0e0
-7.740396e+01 0.000000e+00 0e0
-8.742800e+01 0.000000e+00 0e0
-9.855154e+01 0.000000e+00 0e0
-1.113196e+02 0.000000e+00 0e0
-1.268643e+02 0.000000e+00 0e0
-1.433581e+02 0.000000e+00 0e0
-1.594725e+02 0.000000e+00 0e0
-1.734011e+02 0.000000e+00 0e0
-1.860113e+02 0.000000e+00 0e0
-1.972945e+02 0.000000e+00 0e0
-2.065297e+02 0.000000e+00 0e0
-2.132400e+02 0.000000e+00 0e0
-2.169729e+02 0.000000e+00 0e0
-2.176840e+02 0.000000e+00 0e0
-2.153004e+02 0.000000e+00 0e0
-2.097007e+02 0.000000e+00 0e0
-2.006810e+02 0.000000e+00 0e0
-1.879373e+02 0.000000e+00 0e0
-1.710445e+02 0.000000e+00 0e0
-1.494251e+02 0.000000e+00 0e0
-1.222996e+02 0.000000e+00 0e0
-8.862422e+01 0.000000e+00 0e0
-4.715521e+01 0.000000e+00 0e0
0.000000e+00 0.000000e+00 0e0
0.000000e+00 0.000000e+00 0e0
-8.136744e+00 0.000000e+00 0e0
-1.636237e+01 0.000000e+00 0e0
-2.462727e+01 0.000000e+00 0e0
-3.291962e+01 0.000000e+00 0e0
-4.113529e+01 0.000000e+00 0e0
-4.931700e+01 0.000000e+00 0e0
-5.756823e+01 0.000000e+00 0e0
-6.604746e+01 0.000000e+00 0e0
-7.492087e+01 0.000000e+00 0e0
-8.442431e+01 0.000000e+00 0e0
-9.475950e+01 0.000000e+00 0e0
-1.062526e+02 0.000000e+00 0e0
-1.187620e+02 0.000000e+00 0e0
-1.318471e+02 0.000000e+00 0e0
-1.445808e+02 0.000000e+00 0e0
-1.563844e+02 0.000000e+00 0e0
-1.669114e+02 0.000000e+00 0e0
-1.759916e+02 0.000000e+00 0e0
-1.833186e+02 0.000000e+00 0e0
-1.885105e+02 0.000000e+00 0e0
-1.912822e+02 0.000000e+00 0e0
-1.914193e+02 0.000000e+00 0e0
-1.887684e+02 0.000000e+00 0e0
-1.831645e+02 0.000000e+00 0e0
-1.744013e+02 0.000000e+00 0e0
-1.622125e+02 0.000000e+00 0e0
-1.462618e+02 0.000000e+00 0e0
-1.261421e+02 0.000000e+00 0e0
-1.014015e+02 0.000000e+00 0e0
-7.166960e+01 0.000000e+00 0e0
-3.729422e+01 0.000000e+00 0e0
0.000000e+00 0.000000e+00 0e0
0.000000e+00 0.000000e+00 0e0
-7.663917e+00 0.000000e+00 0e0
-1.537825e+01 0.000000e+00 0e0
-2.315062e+01 0.000000e+00 0e0
-3.091401e+01 0.000000e+00 0e0
-3.864851e+01 0.000000e+00 0e0
-4.637504e+01 0.000000e+00 0e0
-5.417152e+01 0.000000e+00 0e0
-6.215134e+01 0.000000e+00 0e0
-7.044595e+01 0.000000e+00 0e0
-7.919378e+01 0.000000e+00 0e0
-8.851888e+01 0.000000e+00 0e0
-9.846549e+01 0.000000e+00 0e0
-1.089159e+02 0.000000e+00 0e0
-1.195431e+02 0.000000e+00 0e0
-1.299077e+02 0.000000e+00 0e0
-1.395755e+02 0.000000e+00 0e0
-1.482164e+02 0.000000e+00 0e0
-1.555604e+02 0.000000e+00 0e0
-1.613465e+02 0.000000e+00 0e0
-1.653087e+02 0.000000e+00 0e0
-1.671985e+02 0.000000e+00 0e0
-1.668068e+02 0.000000e+00 0e0
-1.639506e+02 0.000000e+00 0e0
-1.584535e+02 0.000000e+00 0e0
-1.501252e+02 0.000000e+00 0e0
-1.387524e+02 0.000000e+00 0e0
-1.241014e+02 0.000000e+00 0e0
-1.059408e+02 0.000000e+00 0e0
-8.410773e+01 0.000000e+00 0e0
-5.867896e+01 0.000000e+00 0e0
-3.022778e+01 0.000000e+00 0e0
0.000000e+00 0.000000e+00 0e0
0.000000e+00 0.000000e+00 0e0
-7.045521e+00 0.000000e+00 0e0
-1.411526e+01 0.000000e+00 0e0
-2.121077e+01 0.000000e+00 0e0
-2.832130e+01 0.000000e+00 0e0
-3.543398e+01 0.000000e+00 0e0
-4.256717e+01 0.000000e+00 0e0
-4.977168e+01 0.000000e+00 0e0
-5.712222e+01 0.000000e+00 0e0
-6.470266e+01 0.000000e+00 0e0
-7.258942e+01 0.000000e+00 0e0
-8.082716e+01 0.000000e+00 0e0
-8.939551e+01 0.000000e+00 0e0
-9.817731e+01 0.000000e+00 0e0
-1.069544e+02 0.000000e+00 0e0
-1.154397e+02 0.000000e+00 0e0
-1.233317e+02 0.000000e+00 0e0
-1.303506e+02 0.000000e+00 0e0
-1.362460e+02 0.000000e+00 0e0
-1.407846e+02 0.000000e+00 0e0
-1.437440e+02 0.000000e+00 0e0
-1.449154e+02 0.000000e+00 0e0
-1.441086e+02 0.000000e+00 0e0
-1.411502e+02 0.000000e+00 0e0
-1.358767e+02 0.000000e+00 0e0
-1.281283e+02 0.000000e+00 0e0
-1.177486e+02 0.000000e+00 0e0
-1.045968e+02 0.000000e+00 0e0
-8.857944e+01 0.000000e+00 0e0
-6.971471e+01 0.000000e+00 0e0
-4.823462e+01 0.000000e+00 0e0
-2.469275e+01 0.000000e+00 0e0
0.000000e+00 0.000000e+00 0e0
0.000000e+00 0.000000e+00 0e0
-6.362515e+00 0.000000e+00 0e0
-1.273715e+01 0.000000e+00 0e0
-1.912974e+01 0.000000e+00 0e0
-2.553913e+01 0.000000e+00 0e0
-3.196827e+01 0.000000e+00 0e0
-3.843224e+01 0.000000e+00 0e0
-4.496325e+01 0.000000e+00 0e0
-5.160572e+01 0.000000e+00 0e0
-5.840584e+01 0.000000e+00 0e0
-6.539742e+01 0.000000e+00 0e0
-7.258503e+01 0.000000e+00 0e0
-7.992603e+01 0.000000e+00 0e0
-8.731841e+01 0.000000e+00 0e0
-9.460106e+01 0.000000e+00 0e0
-1.015698e+02 0.000000e+00 0e0
-1.080007e+02 0.000000e+00 0e0
-1.136708e+02 0.000000e+00 0e0
-1.183673e+02 0.000000e+00 0e0
-1.218894e+02 0.000000e+00 0e0
-1.240475e+02 0.000000e+00 0e0
-1.246635e+02 0.000000e+00 0e0
-1.235727e+02 0.000000e+00 0e0
-1.206237e+02 0.000000e+00 0e0
-1.156783e+02 0.000000e+00 0e0
-1.086121e+02 0.000000e+00 0e0
-9.932052e+01 0.000000e+00 0e0
-8.773392e+01 0.000000e+00 0e0
-7.384678e+01 0.000000e+00 0e0
-5.776226e+01 0.000000e+00 0e0
-3.974651e+01 0.000000e+00 0e0
-2.026973e+01 0.000000e+00 0e0
0.000000e+00 0.000000e+00 0e0
0.000000e+00 0.000000e+00 0e0
-5.660881e+00 0.000000e+00 0e0
-1.132986e+01 0.000000e+00 0e0
-1.701281e+01 0.000000e+00 0e0
-2.271419e+01 0.000000e+00 0e0
-2.844030e+01 0.000000e+00 0e0
-3.420353e+01 0.000000e+00 0e0
-4.002337e+01 0.000000e+00 0e0
-4.592347e+01 0.000000e+00 0e0
-5.192456e+01 0.000000e+00 0e0
-5.803475e+01 0.000000e+00 0e0
-6.423869e+01 0.000000e+00 0e0
-7.048794e+01 0.000000e+00 0e0
-7.669531e+01 0.000000e+00 0e0
-8.273607e+01 0.000000e+00 0e0
-8.845606e+01 0.000000e+00 0e0
-9.368385e+01 0.000000e+00 0e0
-9.824238e+01 0.000000e+00 0e0
-1.019569e+02 0.000000e+00 0e0
-1.046592e+02 0.000000e+00 0e0
-1.061894e+02 0.000000e+00 0e0
-1.063976e+02 0.000000e+00 0e0
-1.051449e+02 0.000000e+00 0e0
-1.023059e+02 0.000000e+00 0e0
-9.777022e+01 0.000000e+00 0e0
-9.144679e+01 0.000000e+00 0e0
-8.327225e+01 0.000000e+00 0e0
-7.322502e+01 0.000000e+00 0e0
-6.134693e+01 0.000000e+00 0e0
-4.777082e+01 0.000000e+00 0e0
-3.274724e+01 0.000000e+00 0e0
-1.665757e+01 0.000000e+00 0e0
0.000000e+00 0.000000e+00 0e0
0.000000e+00 0.000000e+00 0e0
-4.962717e+00 0.000000e+00 0e0
-9.932004e+00 0.000000e+00 0e0
-1.491376e+01 0.000000e+00 0e0
-1.991349e+01 0.000000e+00 0e0
-2.493761e+01 0.000000e+00 0e0
-2.999469e+01 0.000000e+00 0e0
-3.509536e+01 0.000000e+00 0e0
-4.024983e+01 0.000000e+00 0e0
-4.546323e+01 0.000000e+00 0e0
-5.072932e+01 0.000000e+00 0e0
-5.602389e+01 0.000000e+00 0e0
-6.129927e+01 0.000000e+00 0e0
-6.648153e+01 0.000000e+00 0e0
-7.147142e+01 0.000000e+00 0e0
-7.614894e+01 0.000000e+00 0e0
-8.038020e+01 0.000000e+00 0e0
-8.402451e+01 0.000000e+00 0e0
-8.694031e+01 0.000000e+00 0e0
-8.898929e+01 0.000000e+00 0e0
-9.003916e+01 0.000000e+00 0e0
-8.996590e+01 0.000000e+00 0e0
-8.865582e+01 0.000000e+00 0e0
-8.600812e+01 0.000000e+00 0e0
-8.193828e+01 0.000000e+00 0e0
-7.638327e+01 0.000000e+00 0e0
-6.930944e+01 0.000000e+00 0e0
-6.072402e+01 0.000000e+00 0e0
-5.068976e+01 0.000000e+00 0e0
-3.934084e+01 0.000000e+00 0e0
-2.689510e+01 0.000000e+00 0e0
-1.365622e+01 0.000000e+00 0e0
0.000000e+00 0.000000e+00 0e0
0.000000e+00 0.000000e+00 0e0
-4.277634e+00 0.000000e+00 0e0
-8.561262e+00 0.000000e+00 0e0
-1.285647e+01 0.000000e+00 0e0
-1.716838e+01 0.000000e+00 0e0
-2.150197e+01 0.000000e+00 0e0
-2.586225e+01 0.000000e+00 0e0
-3.025359e+01 0.000000e+00 0e0
-3.467790e+01 0.000000e+00 0e0
-3.913144e+01 0.000000e+00 0e0
-4.360083e+01 0.000000e+00 0e0
-4.805907e+01 0.000000e+00 0e0
-5.246231e+01 0.000000e+00 0e0
-5.674837e+01 0.000000e+00 0e0
-6.083741e+01 0.000000e+00 0e0
-6.463470e+01 0.000000e+00 0e0
-6.803472e+01 0.000000e+00 0e0
-7.092581e+01 0.000000e+00 0e0
-7.319441e+01 0.000000e+00 0e0
-7.472859e+01 0.000000e+00 0e0
-7.542091e+01 0.000000e+00 0e0
-7.517090e+01 0.000000e+00 0e0
-7.388754e+01 0.000000e+00 0e0
-7.149216e+01 0.000000e+00 0e0
-6.792212e+01 0.000000e+00 0e0
-6.313587e+01 0.000000e+00 0e0
-5.711963e+01 0.000000e+00 0e0
-4.989578e+01 0.000000e+00 0e0
-4.153239e+01 0.000000e+00 0e0
-3.215182e+01 0.000000e+00 0e0
-2.193581e+01 0.000000e+00 0e0
-1.112346e+01 0.000000e+00 0e0
0.000000e+00 0.000000e+00 0e0
0.000000e+00 0.000000e+00 0e0
-3.608870e+00 0.000000e+00 0e0
-7.223644e+00 0.000000e+00 0e0
-1.084961e+01 0.000000e+00 0e0
-1.449102e+01 0.000000e+00 0e0
-1.815107e+01 0.000000e+00 0e0
-2.183175e+01 0.000000e+00 0e0
-2.553323e+01 0.000000e+00 0e0
-2.925253e+01 0.000000e+00 0e0
-3.298138e+01 0.000000e+00 0e0
-3.670373e+01 0.000000e+00 0e0
-4.039321e+01 0.000000e+00 0e0
-4.401125e+01 0.000000e+00 0e0
-4.750628e+01 0.000000e+00 0e0
-5.081420e+01 0.000000e+00 0e0
-5.386010e+01 0.000000e+00 0e0
-5.656095e+01 0.000000e+00 0e0
-5.882867e+01 0.000000e+00 0e0
-6.057326e+01 0.000000e+00 0e0
-6.170563e+01 0.000000e+00 0e0
-6.214021e+01 0.000000e+00 0e0
-6.179737e+01 0.000000e+00 0e0
-6.060590e+01 0.000000e+00 0e0
-5.850591e+01 0.000000e+00 0e0
-5.545231e+01 0.000000e+00 0e0
-5.141913e+01 0.000000e+00 0e0
-4.640475e+01 0.000000e+00 0e0
-4.043783e+01 0.000000e+00 0e0
-3.358316e+01 0.000000e+00 0e0
-2.594615e+01 0.000000e+00 0e0
-1.767418e+01 0.000000e+00 0e0
-8.953408e+00 0.000000e+00 0e0
0.000000e+00 0.000000e+00 0e0
0.000000e+00 0.000000e+00 0e0
-2.955968e+00 0.000000e+00 0e0
-5.918453e+00 0.000000e+00 0e0
-8.892741e+00 0.000000e+00 0e0
-1.188215e+01 0.000000e+00 0e0
-1.488803e+01 0.000000e+00 0e0
-1.790987e+01 0.000000e+00 0e0
-2.094507e+01 0.000000e+00 0e0
-2.398805e+01 0.000000e+00 0e0
-2.702883e+01 0.000000e+00 0e0
-3.005136e+01 0.000000e+00 0e0
-3.303189e+01 0.000000e+00 0e0
-3.593788e+01 0.000000e+00 0e0
-3.872750e+01 0.000000e+00 0e0
-4.134996e+01 0.000000e+00 0e0
-4.374672e+01 0.000000e+00 0e0
-4.585321e+01 0.000000e+00 0e0
-4.760096e+01 0.000000e+00 0e0
-4.891994e+01 0.000000e+00 0e0
-4.974074e+01 0.000000e+00 0e0
-4.999679e+01 0.000000e+00 0e0
-4.962652e+01 0.000000e+00 0e0
-4.857566e+01 0.000000e+00 0e0
-4.679977e+01 0.000000e+00 0e0
-4.426730e+01 0.000000e+00 0e0
-4.096301e+01 0.000000e+00 0e0
-3.689194e+01 0.000000e+00 0e0
-3.208346e+01 0.000000e+00 0e0
-2.659481e+01 0.000000e+00 0e0
-2.051317e+01 0.000000e+00 0e0
-1.395524e+01 0.000000e+00 0e0
-7.063598e+00 0.000000e+00 0e0
0.000000e+00 0.000000e+00 0e0
0.000000e+00 0.000000e+00 0e0
-2.315840e+00 0.000000e+00 0e0
-4.640305e+00 0.000000e+00 0e0
-6.979307e+00 0.000000e+00 0e0
-9.334994e+00 0.000000e+00 0e0
-1.170646e+01 0.000000e+00 0e0
-1.409088e+01 0.000000e+00 0e0
-1.648385e+01 0.000000e+00 0e0
-1.887877e+01 0.000000e+00 0e0
-2.126575e+01 0.000000e+00 0e0
-2.363043e+01 0.000000e+00 0e0
-2.595286e+01 0.000000e+00 0e0
-2.820685e+01 0.000000e+00 0e0
-3.035965e+01 0.000000e+00 0e0
-3.237220e+01 0.000000e+00 0e0
-3.419995e+01 0.000000e+00 0e0
-3.579398e+01 0.000000e+00 0e0
-3.710258e+01 0.000000e+00 0e0
-3.807284e+01 0.000000e+00 0e0
-3.865238e+01 0.000000e+00 0e0
-3.879109e+01 0.000000e+00 0e0
-3.844296e+01 0.000000e+00 0e0
-3.756796e+01 0.000000e+00 0e0
-3.613417e+01 0.000000e+00 0e0
-3.412020e+01 0.000000e+00 0e0
-3.151787e+01 0.000000e+00 0e0
-2.833502e+01 0.000000e+00 0e0
-2.459834e+01 0.000000e+00 0e0
-2.035562e+01 0.000000e+00 0e0
-1.567659e+01 0.000000e+00 0e0
-1.065147e+01 0.000000e+00 0e0
-5.386860e+00 0.000000e+00 0e0
0.000000e+00 0.000000e+00 0e0
0.000000e+00 0.000000e+00 0e0