<?xml version="1.0"?>
<VTKFile type="ImageData" version="1.0" byte_order="LittleEndian" header_type="UInt64">
<ImageData WholeExtent= "0 32 0 32 0 1" Origin= "0.000000e+00 0.000000e+00 5.000000e-01" Spacing= "3.125000e-02 3.125000e-02 3.125000e-02" >
<Piece Extent= "0 32 0 32 0 1">
<PointData>
<DataArray type="Float64" Name="velocity" NumberOfComponents="3" format="ascii">
0.000000e+00 0.000000e+00 0e0
0.000000e+00 0.000000e+00 0e0
0.000000e+00 0.000000e+00 0e0
0.000000e+00 0.000000e+00 0e0
0.000000e+00 0.000000e+00 0e0
0.000000e+00 0.000000e+00 0e0
0.000000e+00 0.000000e+00 0e0
0.000000e+00 0.000000e+00 0e0
0.000000e+00 0.000000e+00 0e0
0.000000e+00 0.000000e+00 0e0
0.000000e+00 0.000000e+00 0e0
0.000000e+00 0.000000e+00 0e0
0.000000e+00 0.000000e+00 0e0
0.000000e+00 0.000000e+00 0e0
0.000000e+00 0.000000e+00 0e0
0.000000e+00 0.000000e+00 0e0
0.000000e+00 0.000000e+00 0e0
0.000000e+00 0.000000e+00 0e0
0.000000e+00 0.000000e+00 0e0
0.000000e+00 0.000000e+00 0e0
0.000000e+00 0.000000e+00 0e0
0.000000e+00 0.000000e+00 0e0
0.000000e+00 0.000000e+00 0e0
0.000000e+00 0.000000e+00 0e0
0.000000e+00 0.000000e+00 0e0
0.000000e+00 0.000000e+00 0e0
0.000000e+00 0.000000e+00 0e0
0.000000e+00 0.000000e+00 0e0
0.000000e+00 0.000000e+00 0e0
0.000000e+00 0.000000e+00 0e0
0.000000e+00 0.000000e+00 0e0
0.000000e+00 0.000000e+00 0e0
0.000000e+00 0.000000e+00 0e0
0.000000e+00 0.000000e+00 0e0
-8.814011e-01 0.000000e+00 0e0
-1.764650e+00 0.000000e+00 0e0
-2.651409e+00 0.000000e+00 0e0
-3.542962e+00 0.000000e+00 0e0
-4.440007e+00 0.000000e+00 0e0
-5.342432e+00 0.000000e+00 0e0
-6.249065e+00 0.000000e+00 0e0
-7.157417e+00 0.000000e+00 0e0
-8.063419e+00 0.000000e+00 0e0
-8.961174e+00 0.000000e+00 0e0
-9.842744e+00 0.000000e+00 0e0
-1.069799e+01 0.000000e+00 0e0
-1.151453e+01 0.000000e+00 0e0
-1.227771e+01 0.000000e+00 0e0
-1.297086e+01 0.000000e+00 0e0
-1.357550e+01 0.000000e+00 0e0
-1.407184e+01 0.000000e+00 0e0
-1.443935e+01 0.000000e+00 0e0
-1.465747e+01 0.000000e+00 0e0
-1.470644e+01 0.000000e+00 0e0
-1.456822e+01 0.000000e+00 0e0
-1.422749e+01 0.000000e+00 0e0
-1.367261e+01 0.000000e+00 0e0
-1.289670e+01 0.000000e+00 0e0
-1.189846e+01 0.000000e+00 0e0
-1.068305e+01 0.000000e+00 0e0
-9.262635e+00 0.000000e+00 0e0
-7.656640e+00 0.000000e+00 0e0
-5.891650e+00 0.000000e+00 0e0
-4.000804e+00 0.000000e+00 0e0
-2.022729e+00 0.000000e+00 0e0
0.000000e+00 0.000000e+00 0e0
0.000000e+00 0.000000e+00 0e0
-1.768421e+00 0.000000e+00 0e0
-3.540718e+00 0.000000e+00 0e0
-5.320400e+00 0.000000e+00 0e0
-7.110238e+00 0.000000e+00 0e0
-8.911850e+00 0.000000e+00 0e0
-1.072525e+01 0.000000e+00 0e0
-1.254833e+01 0.000000e+00 0e0
-1.437636e+01 0.000000e+00 0e0
-1.620141e+01 0.000000e+00 0e0
-1.801186e+01 0.000000e+00 0e0
-1.979191e+01 0.000000e+00 0e0
-2.152129e+01 0.000000e+00 0e0
-2.317505e+01 0.000000e+00 0e0
-2.472367e+01 0.000000e+00 0e0
-2.613332e+01 0.000000e+00 0e0
-2.736647e+01 0.000000e+00 0e0
-2.838281e+01 0.000000e+00 0e0
-2.914042e+01 0.000000e+00 0e0
-2.959721e+01 0.000000e+00 0e0
-2.971263e+01 0.000000e+00 0e0
-2.944954e+01 0.000000e+00 0e0
-2.877621e+01 0.000000e+00 0e0
-2.766838e+01 0.000000e+00 0e0
-2.611132e+01 0.000000e+00 0e0
-2.410170e+01 0.000000e+00 0e0
-2.164933e+01 0.000000e+00 0e0
-1.877834e+01 0.000000e+00 0e0
-1.552785e+01 0.000000e+00 0e0
-1.195180e+01 0.000000e+00 0e0
-8.117738e+00 0.000000e+00 0e0
-4.104704e+00 0.000000e+00 0e0
0.000000e+00 0.000000e+00 0e0
0.000000e+00 0.000000e+00 0e0
-2.666483e+00 0.000000e+00 0e0
-5.339219e+00 0.000000e+00 0e0
-8.023932e+00 0.000000e+00 0e0
-1.072528e+01 0.000000e+00 0e0
-1.344625e+01 0.000000e+00 0e0
-1.618744e+01 0.000000e+00 0e0
-1.894635e+01 0.000000e+00 0e0
-2.171647e+01 0.000000e+00 0e0
-2.448650e+01 0.000000e+00 0e0
-2.723943e+01 0.000000e+00 0e0
-2.995182e+01 0.000000e+00 0e0
-3.259324e+01 0.000000e+00 0e0
-3.512596e+01 0.000000e+00 0e0
-3.750497e+01 0.000000e+00 0e0
-3.967845e+01 0.000000e+00 0e0
-4.158863e+01 0.000000e+00 0e0
-4.317318e+01 0.000000e+00 0e0
-4.436703e+01 0.000000e+00 0e0
-4.510461e+01 0.000000e+00 0e0
-4.532248e+01 0.000000e+00 0e0
-4.496222e+01 0.000000e+00 0e0
-4.397355e+01 0.000000e+00 0e0
-4.231747e+01 0.000000e+00 0e0
-3.996951e+01 0.000000e+00 0e0
-3.692272e+01 0.000000e+00 0e0
-3.319043e+01 0.000000e+00 0e0
-2.880832e+01 0.000000e+00 0e0
-2.383563e+01 0.000000e+00 0e0
-1.835511e+01 0.000000e+00 0e0
-1.247138e+01 0.000000e+00 0e0
-6.307495e+00 0.000000e+00 0e0
0.000000e+00 0.000000e+00 0e0
0.000000e+00 0.000000e+00 0e0
-3.580624e+00 0.000000e+00 0e0
-7.170377e+00 0.000000e+00 0e0
-1.077773e+01 0.000000e+00 0e0
-1.440982e+01 0.000000e+00 0e0
-1.807165e+01 0.000000e+00 0e0
-2.176520e+01 0.000000e+00 0e0
-2.548831e+01 0.000000e+00 0e0
-2.923356e+01 0.000000e+00 0e0
-3.298697e+01 0.000000e+00 0e0
-3.672680e+01 0.000000e+00 0e0
-4.042233e+01 0.000000e+00 0e0
-4.403305e+01 0.000000e+00 0e0
-4.750807e+01 0.000000e+00 0e0
-5.078611e+01 0.000000e+00 0e0
-5.379600e+01 0.000000e+00 0e0
-5.645792e+01 0.000000e+00 0e0
-5.868521e+01 0.000000e+00 0e0
-6.038695e+01 0.000000e+00 0e0
-6.147106e+01 0.000000e+00 0e0
-6.184799e+01 0.000000e+00 0e0
-6.143469e+01 0.000000e+00 0e0
-6.015897e+01 0.000000e+00 0e0
-5.796389e+01 0.000000e+00 0e0
-5.481225e+01 0.000000e+00 0e0
-5.069090e+01 0.000000e+00 0e0
-4.561478e+01 0.000000e+00 0e0
-3.963021e+01 0.000000e+00 0e0
-3.281701e+01 0.000000e+00 0e0
-2.528887e+01 0.000000e+00 0e0
-1.719139e+01 0.000000e+00 0e0
-8.697455e+00 0.000000e+00 0e0
0.000000e+00 0.000000e+00 0e0
0.000000e+00 0.000000e+00 0e0
-4.515308e+00 0.000000e+00 0e0
-9.043231e+00 0.000000e+00 0e0
-1.359565e+01 0.000000e+00 0e0
-1.818296e+01 0.000000e+00 0e0
-2.281308e+01 0.000000e+00 0e0
-2.749034e+01 0.000000e+00 0e0
-3.221413e+01 0.000000e+00 0e0
-3.697728e+01 0.000000e+00 0e0
-4.176430e+01 0.000000e+00 0e0
-4.654965e+01 0.000000e+00 0e0
-5.129604e+01 0.000000e+00 0e0
-5.595304e+01 0.000000e+00 0e0
-6.045624e+01 0.000000e+00 0e0
-6.472700e+01 0.000000e+00 0e0
-6.867306e+01 0.000000e+00 0e0
-7.218999e+01 0.000000e+00 0e0
-7.516362e+01 0.000000e+00 0e0
-7.747341e+01 0.000000e+00 0e0
-7.899656e+01 0.000000e+00 0e0
-7.961289e+01 0.000000e+00 0e0
-7.921017e+01 0.000000e+00 0e0
-7.768970e+01 0.000000e+00 0e0
-7.497214e+01 0.000000e+00 0e0
-7.100335e+01 0.000000e+00 0e0
-6.576024e+01 0.000000e+00 0e0
-5.925637e+01 0.000000e+00 0e0
-5.154695e+01 0.000000e+00 0e0
-4.273246e+01 0.000000e+00 0e0
-3.296010e+01 0.000000e+00 0e0
-2.242182e+01 0.000000e+00 0e0
-1.134852e+01 0.000000e+00 0e0
0.000000e+00 0.000000e+00 0e0
0.000000e+00 0.000000e+00 0e0
-5.474245e+00 0.000000e+00 0e0
-1.096526e+01 0.000000e+00 0e0
-1.648910e+01 0.000000e+00 0e0
-2.206029e+01 0.000000e+00 0e0
-2.769079e+01 0.000000e+00 0e0
-3.338864e+01 0.000000e+00 0e0
-3.915629e+01 0.000000e+00 0e0
-4.498852e+01 0.000000e+00 0e0
-5.087003e+01 0.000000e+00 0e0
-5.677299e+01 0.000000e+00 0e0
-6.265458e+01 0.000000e+00 0e0
-6.845497e+01 0.000000e+00 0e0
-7.409588e+01 0.000000e+00 0e0
-7.948005e+01 0.000000e+00 0e0
-8.449183e+01 0.000000e+00 0e0
-8.899891e+01 0.000000e+00 0e0
-9.285536e+01 0.000000e+00 0e0
-9.590597e+01 0.000000e+00 0e0
-9.799166e+01 0.000000e+00 0e0
-9.895574e+01 0.000000e+00 0e0
-9.865079e+01 0.000000e+00 0e0
-9.694577e+01 0.000000e+00 0e0
-9.373322e+01 0.000000e+00 0e0
-8.893654e+01 0.000000e+00 0e0
-8.251748e+01 0.000000e+00 0e0
-7.448372e+01 0.000000e+00 0e0
-6.489619e+01 0.000000e+00 0e0
-5.387520e+01 0.000000e+00 0e0
-4.160392e+01 0.000000e+00 0e0
-2.832741e+01 0.000000e+00 0e0
-1.434562e+01 0.000000e+00 0e0
0.000000e+00 0.000000e+00 0e0
0.000000e+00 0.000000e+00 0e0
-6.460232e+00 0.000000e+00 0e0
-1.294203e+01 0.000000e+00 0e0
-1.946638e+01 0.000000e+00 0e0
-2.605292e+01 0.000000e+00 0e0
-3.271893e+01 0.000000e+00 0e0
-3.947785e+01 0.000000e+00 0e0
-4.633724e+01 0.000000e+00 0e0
-5.329614e+01 0.000000e+00 0e0
-6.034190e+01 0.000000e+00 0e0
-6.744666e+01 0.000000e+00 0e0
-7.456385e+01 0.000000e+00 0e0
-8.162516e+01 0.000000e+00 0e0
-8.853830e+01 0.000000e+00 0e0
-9.518596e+01 0.000000e+00 0e0
-1.014263e+02 0.000000e+00 0e0
-1.070949e+02 0.000000e+00 0e0
-1.120085e+02 0.000000e+00 0e0
-1.159707e+02 0.000000e+00 0e0
-1.187789e+02 0.000000e+00 0e0
-1.202324e+02 0.000000e+00 0e0
-1.201410e+02 0.000000e+00 0e0
-1.183343e+02 0.000000e+00 0e0
-1.146698e+02 0.000000e+00 0e0
-1.090417e+02 0.000000e+00 0e0
-1.013897e+02 0.000000e+00 0e0
-9.170894e+01 0.000000e+00 0e0
-8.006063e+01 0.000000e+00 0e0
-6.658197e+01 0.000000e+00 0e0
-5.149365e+01 0.000000e+00 0e0
-3.510146e+01 0.000000e+00 0e0
-1.778902e+01 0.000000e+00 0e0
0.000000e+00 0.000000e+00 0e0
0.000000e+00 0.000000e+00 0e0
-7.474999e+00 0.000000e+00 0e0
-1.497687e+01 0.000000e+00 0e0
-2.253215e+01 0.000000e+00 0e0
-3.016655e+01 0.000000e+00 0e0
-3.790408e+01 0.000000e+00 0e0
-4.576556e+01 0.000000e+00 0e0
-5.376633e+01 0.000000e+00 0e0
-6.191291e+01 0.000000e+00 0e0
-7.019878e+01 0.000000e+00 0e0
-7.859949e+01 0.000000e+00 0e0
-8.706751e+01 0.000000e+00 0e0
-9.552777e+01 0.000000e+00 0e0
-1.038742e+02 0.000000e+00 0e0
-1.119678e+02 0.000000e+00 0e0
-1.196372e+02 0.000000e+00 0e0
-1.266805e+02 0.000000e+00 0e0
-1.328701e+02 0.000000e+00 0e0
-1.379599e+02 0.000000e+00 0e0
-1.416939e+02 0.000000e+00 0e0
-1.438178e+02 0.000000e+00 0e0
-1.440900e+02 0.000000e+00 0e0
-1.422924e+02 0.000000e+00 0e0
-1.382397e+02 0.000000e+00 0e0
-1.317893e+02 0.000000e+00 0e0
-1.228504e+02 0.000000e+00 0e0
-1.113963e+02 0.000000e+00 0e0
-9.747907e+01 0.000000e+00 0e0
-8.124589e+01 0.000000e+00 0e0
-6.295363e+01 0.000000e+00 0e0
-4.297649e+01 0.000000e+00 0e0
-2.180037e+01 0.000000e+00 0e0
0.000000e+00 0.000000e+00 0e0
0.000000e+00 0.000000e+00 0e0
-8.519062e+00 0.000000e+00 0e0
-1.707050e+01 0.000000e+00 0e0
-2.568679e+01 0.000000e+00 0e0
-3.440045e+01 0.000000e+00 0e0
-4.324359e+01 0.000000e+00 0e0
-5.224669e+01 0.000000e+00 0e0
-6.143616e+01 0.000000e+00 0e0
-7.083039e+01 0.000000e+00 0e0
-8.043408e+01 0.000000e+00 0e0
-9.023131e+01 0.000000e+00 0e0
-1.001781e+02 0.000000e+00 0e0
-1.101955e+02 0.000000e+00 0e0
-1.201643e+02 0.000000e+00 0e0
-1.299225e+02 0.000000e+00 0e0
-1.392649e+02 0.000000e+00 0e0
-1.479456e+02 0.000000e+00 0e0
-1.556834e+02 0.000000e+00 0e0
-1.621706e+02 0.000000e+00 0e0
-1.670856e+02 0.000000e+00 0e0
-1.701079e+02 0.000000e+00 0e0
-1.709336e+02 0.000000e+00 0e0
-1.692880e+02 0.000000e+00 0e0
-1.649365e+02 0.000000e+00 0e0
-1.576916e+02 0.000000e+00 0e0
-1.474228e+02 0.000000e+00 0e0
-1.340689e+02 0.000000e+00 0e0
-1.176577e+02 0.000000e+00 0e0
-9.833184e+01 0.000000e+00 0e0
-7.637647e+01 0.000000e+00 0e0
-5.223931e+01 0.000000e+00 0e0
-2.653162e+01 0.000000e+00 0e0
0.000000e+00 0.000000e+00 0e0
0.000000e+00 0.000000e+00 0e0
-9.591507e+00 0.000000e+00 0e0
-1.922066e+01 0.000000e+00 0e0
-2.892577e+01 0.000000e+00 0e0
-3.874640e+01 0.000000e+00 0e0
-4.872382e+01 0.000000e+00 0e0
-5.890051e+01 0.000000e+00 0e0
-6.931799e+01 0.000000e+00 0e0
-8.001235e+01 0.000000e+00 0e0
-9.100684e+01 0.000000e+00 0e0
-1.023020e+02 0.000000e+00 0e0
-1.138646e+02 0.000000e+00 0e0
-1.256164e+02 0.000000e+00 0e0
-1.374269e+02 0.000000e+00 0e0
-1.491091e+02 0.000000e+00 0e0
-1.604193e+02 0.000000e+00 0e0
-1.710596e+02 0.000000e+00 0e0
-1.806830e+02 0.000000e+00 0e0
-1.889046e+02 0.000000e+00 0e0
-1.953190e+02 0.000000e+00 0e0
-1.995223e+02 0.000000e+00 0e0
-2.011352e+02 0.000000e+00 0e0
-1.998193e+02 0.000000e+00 0e0
-1.952857e+02 0.000000e+00 0e0
-1.872982e+02 0.000000e+00 0e0
-1.756775e+02 0.000000e+00 0e0
-1.603116e+02 0.000000e+00 0e0
-1.411806e+02 0.000000e+00 0e0
-1.183953e+02 0.000000e+00 0e0
-9.224721e+01 0.000000e+00 0e0
-6.325409e+01 0.000000e+00 0e0
-3.217913e+01 0.000000e+00 0e0
0.000000e+00 0.000000e+00 0e0
0.000000e+00 0.000000e+00 0e0
-1.068955e+01 0.000000e+00 0e0
-2.142129e+01 0.000000e+00 0e0
-3.223852e+01 0.000000e+00 0e0
-4.318720e+01 0.000000e+00 0e0
-5.431792e+01 0.000000e+00 0e0
-6.568712e+01 0.000000e+00 0e0
-7.735601e+01 0.000000e+00 0e0
-8.938603e+01 0.000000e+00 0e0
-1.018296e+02 0.000000e+00 0e0
-1.147161e+02 0.000000e+00 0e0
-1.280345e+02 0.000000e+00 0e0
-1.417156e+02 0.000000e+00 0e0
-1.556197e+02 0.000000e+00 0e0
-1.695323e+02 0.000000e+00 0e0
-1.831656e+02 0.000000e+00 0e0
-1.961604e+02 0.000000e+00 0e0
-2.080903e+02 0.000000e+00 0e0
-2.184699e+02 0.000000e+00 0e0
-2.267816e+02 0.000000e+00 0e0
-2.325118e+02 0.000000e+00 0e0
-2.351906e+02 0.000000e+00 0e0
-2.344115e+02 0.000000e+00 0e0
-2.298363e+02 0.000000e+00 0e0
-2.211834e+02 0.000000e+00 0e0
-2.082201e+02 0.000000e+00 0e0
-1.907656e+02 0.000000e+00 0e0
-1.687174e+02 0.000000e+00 0e0
-1.421061e+02 0.000000e+00 0e0
-1.111800e+02 0.000000e+00 0e0
-7.650101e+01 0.000000e+00 0e0
-3.900889e+01 0.000000e+00 0e0
0.000000e+00 0.000000e+00 0e0
0.000000e+00 0.000000e+00 0e0
-1.180751e+01 0.000000e+00 0e0
-2.366073e+01 0.000000e+00 0e0
-3.560623e+01 0.000000e+00 0e0
-4.769403e+01 0.000000e+00 0e0
-5.998245e+01 0.000000e+00 0e0
-7.254255e+01 0.000000e+00 0e0
-8.545986e+01 0.000000e+00 0e0
-9.883061e+01 0.000000e+00 0e0
-1.127513e+02 0.000000e+00 0e0
-1.272996e+02 0.000000e+00 0e0
-1.425073e+02 0.000000e+00 0e0
-1.583281e+02 0.000000e+00 0e0
-1.746156e+02 0.000000e+00 0e0
-1.911206e+02 0.000000e+00 0e0
-2.075028e+02 0.000000e+00 0e0
-2.233384e+02 0.000000e+00 0e0
-2.381057e+02 0.000000e+00 0e0
-2.511890e+02 0.000000e+00 0e0
-2.619021e+02 0.000000e+00 0e0
-2.695803e+02 0.000000e+00 0e0
-2.736381e+02 0.000000e+00 0e0
-2.736146e+02 0.000000e+00 0e0
-2.691446e+02 0.000000e+00 0e0
-2.599227e+02 0.000000e+00 0e0
-2.456671e+02 0.000000e+00 0e0
-2.261108e+02 0.000000e+00 0e0
-2.010231e+02 0.000000e+00 0e0
-1.702774e+02 0.000000e+00 0e0
-1.339781e+02 0.000000e+00 0e0
-9.264819e+01 0.000000e+00 0e0
-4.740605e+01 0.000000e+00 0e0
0.000000e+00 0.000000e+00 0e0
0.000000e+00 0.000000e+00 0e0
-1.293432e+01 0.000000e+00 0e0
-2.591760e+01 0.000000e+00 0e0
-3.899678e+01 0.000000e+00 0e0
-5.222101e+01 0.000000e+00 0e0
-6.565093e+01 0.000000e+00 0e0
-7.937059e+01 0.000000e+00 0e0
-9.349349e+01 0.000000e+00 0e0
-1.081612e+02 0.000000e+00 0e0
-1.235329e+02 0.000000e+00 0e0
-1.397653e+02 0.000000e+00 0e0
-1.569703e+02 0.000000e+00 0e0
-1.751561e+02 0.000000e+00 0e0
-1.941696e+02 0.000000e+00 0e0
-2.136988e+02 0.000000e+00 0e0
-2.333360e+02 0.000000e+00 0e0
-2.525985e+02 0.000000e+00 0e0
-2.709003e+02 0.000000e+00 0e0
-2.874146e+02 0.000000e+00 0e0
-3.012121e+02 0.000000e+00 0e0
-3.113313e+02 0.000000e+00 0e0
-3.170879e+02 0.000000e+00 0e0
-3.179979e+02 0.000000e+00 0e0
-3.137498e+02 0.000000e+00 0e0
-3.040578e+02 0.000000e+00 0e0
-2.886074e+02 0.000000e+00 0e0
-2.670327e+02 0.000000e+00 0e0
-2.389294e+02 0.000000e+00 0e0
-2.039100e+02 0.000000e+00 0e0
-1.617506e+02 0.000000e+00 0e0
-1.127145e+02 0.000000e+00 0e0
-5.799750e+01 0.000000e+00 0e0
0.000000e+00 0.000000e+00 0e0
0.000000e+00 0.000000e+00 0e0
-1.404830e+01 0.000000e+00 0e0
-2.815138e+01 0.000000e+00 0e0
-4.235398e+01 0.000000e+00 0e0
-5.669224e+01 0.000000e+00 0e0
-7.121919e+01 0.000000e+00 0e0
-8.602540e+01 0.000000e+00 0e0
-1.012550e+02 0.000000e+00 0e0
-1.171048e+02 0.000000e+00 0e0
-1.338155e+02 0.000000e+00 0e0
-1.516579e+02 0.000000e+00 0e0
-1.709031e+02 0.000000e+00 0e0
-1.916877e+02 0.000000e+00 0e0
-2.138772e+02 0.000000e+00 0e0
-2.369844e+02 0.000000e+00 0e0
-2.604194e+02 0.000000e+00 0e0
-2.838050e+02 0.000000e+00 0e0
-3.065134e+02 0.000000e+00 0e0
-3.276752e+02 0.000000e+00 0e0
-3.454364e+02 0.000000e+00 0e0
-3.586307e+02 0.000000e+00 0e0
-3.662402e+02 0.000000e+00 0e0
-3.681239e+02 0.000000e+00 0e0
-3.641283e+02 0.000000e+00 0e0
-3.540457e+02 0.000000e+00 0e0
-3.375484e+02 0.000000e+00 0e0
-3.141717e+02 0.000000e+00 0e0
-2.833036e+02 0.000000e+00 0e0
-2.442133e+02 0.000000e+00 0e0
-1.961181e+02 0.000000e+00 0e0
-1.384406e+02 0.000000e+00 0e0
-7.198042e+01 0.000000e+00 0e0
0.000000e+00 0.000000e+00 0e0
0.000000e+00 0.000000e+00 0e0
-1.510511e+01 0.000000e+00 0e0
-3.028444e+01 0.000000e+00 0e0
-4.556932e+01 0.000000e+00 0e0
-6.097140e+01 0.000000e+00 0e0
-7.650671e+01 0.000000e+00 0e0
-9.226718e+01 0.000000e+00 0e0
-1.084305e+02 0.000000e+00 0e0
-1.252554e+02 0.000000e+00 0e0
-1.430730e+02 0.000000e+00 0e0
-1.622922e+02 0.000000e+00 0e0
-1.834109e+02 0.000000e+00 0e0
-2.070285e+02 0.000000e+00 0e0
-2.330507e+02 0.000000e+00 0e0
-2.606936e+02 0.000000e+00 0e0
-2.885043e+02 0.000000e+00 0e0
-3.160592e+02 0.000000e+00 0e0
-3.450906e+02 0.000000e+00 0e0
-3.723717e+02 0.000000e+00 0e0
-3.966744e+02 0.000000e+00 0e0
-4.126171e+02 0.000000e+00 0e0
-4.218187e+02 0.000000e+00 0e0
-4.244386e+02 0.000000e+00 0e0
-4.205964e+02 0.000000e+00 0e0
-4.101692e+02 0.000000e+00 0e0
-3.928301e+02 0.000000e+00 0e0
-3.680223e+02 0.000000e+00 0e0
-3.349469e+02 0.000000e+00 0e0
-2.925074e+02 0.000000e+00 0e0
-2.392542e+02 0.000000e+00 0e0
-1.732744e+02 0.000000e+00 0e0
-9.212987e+01 0.000000e+00 0e0
0.000000e+00 0.000000e+00 0e0
0.000000e+00 0.000000e+00 0e0
-1.601504e+01 0.000000e+00 0e0
-3.214967e+01 0.000000e+00 0e0
-4.843969e+01 0.000000e+00 0e0
-6.477562e+01 0.000000e+00 0e0
-8.114907e+01 0.000000e+00 0e0
-9.764455e+01 0.000000e+00 0e0
-1.144788e+02 0.000000e+00 0e0
-1.319695e+02 0.000000e+00 0e0
-1.505263e+02 0.000000e+00 0e0
-1.706770e+02 0.000000e+00 0e0
-1.931551e+02 0.000000e+00 0e0
-2.190369e+02 0.000000e+00 0e0
-2.506634e+02 0.000000e+00 0e0
-2.844876e+02 0.000000e+00 0e0
-3.181034e+02 0.000000e+00 0e0
-3.485979e+02 0.000000e+00 0e0
-3.796013e+02 0.000000e+00 0e0
-4.318051e+02 0.000000e+00 0e0
-4.566798e+02 0.000000e+00 0e0
-4.744898e+02 0.000000e+00 0e0
-4.841773e+02 0.000000e+00 0e0
-4.870302e+02 0.000000e+00 0e0
-4.831110e+02 0.000000e+00 0e0
-4.723660e+02 0.000000e+00 0e0
-4.544494e+02 0.000000e+00 0e0
-4.287459e+02 0.000000e+00 0e0
-3.943247e+02 0.000000e+00 0e0
-3.498531e+02 0.000000e+00 0e0
-2.933798e+02 0.000000e+00 0e0
-2.218348e+02 0.000000e+00 0e0
-1.295541e+02 0.000000e+00 0e0
0.000000e+00 0.000000e+00 0e0
0.000000e+00 0.000000e+00 0e0
-1.662061e+01 0.000000e+00 0e0
-3.342883e+01 0.000000e+00 0e0
-5.033649e+01 0.000000e+00 0e0
-6.733273e+01 0.000000e+00 0e0
-8.422650e+01 0.000000e+00 0e0
-1.011255e+02 0.000000e+00 0e0
-1.182751e+02 0.000000e+00 0e0
-1.360322e+02 0.000000e+00 0e0
-1.548455e+02 0.000000e+00 0e0
-1.752946e+02 0.000000e+00 0e0
-1.982005e+02 0.000000e+00 0e0
-2.249852e+02 0.000000e+00 0e0
-2.579673e+02 0.000000e+00 0e0
-3.147913e+02 0.000000e+00 0e0
-3.495127e+02 0.000000e+00 0e0
-3.801124e+02 0.000000e+00 0e0
-4.106795e+02 0.000000e+00 0e0
-4.387845e+02 0.000000e+00 0e0
-4.634933e+02 0.000000e+00 0e0
-4.795671e+02 0.000000e+00 0e0
-4.886962e+02 0.000000e+00 0e0
-4.910730e+02 0.000000e+00 0e0
-4.868213e+02 0.000000e+00 0e0
-4.757996e+02 0.000000e+00 0e0
-4.576344e+02 0.000000e+00 0e0
-4.316882e+02 0.000000e+00 0e0
-3.970153e+02 0.000000e+00 0e0
-3.522548e+02 0.000000e+00 0e0
-2.954147e+02 0.000000e+00 0e0
-2.233552e+02 0.000000e+00 0e0
-1.303570e+02 0.000000e+00 0e0
0.000000e+00 0.000000e+00 0e0
0.000000e+00 0.000000e+00 0e0
-1.675158e+01 0.000000e+00 0e0
-3.363085e+01 0.000000e+00 0e0
-5.080467e+01 0.000000e+00 0e0
-6.783557e+01 0.000000e+00 0e0
-8.480132e+01 0.000000e+00 0e0
-1.016605e+02 0.000000e+00 0e0
-1.187042e+02 0.000000e+00 0e0
-1.362804e+02 0.000000e+00 0e0
-1.548115e+02 0.000000e+00 0e0
-1.748528e+02 0.000000e+00 0e0
-1.971050e+02 0.000000e+00 0e0
-2.226384e+02 0.000000e+00 0e0
-2.537288e+02 0.000000e+00 0e0
-2.867162e+02 0.000000e+00 0e0
-3.189449e+02 0.000000e+00 0e0
-3.468023e+02 0.000000e+00 0e0
-3.720227e+02 0.000000e+00 0e0
-3.945891e+02 0.000000e+00 0e0
-4.130594e+02 0.000000e+00 0e0
-4.264801e+02 0.000000e+00 0e0
-4.339458e+02 0.000000e+00 0e0
-4.353680e+02 0.000000e+00 0e0
-4.306008e+02 0.000000e+00 0e0
-4.194015e+02 0.000000e+00 0e0
-4.013620e+02 0.000000e+00 0e0
-3.758747e+02 0.000000e+00 0e0
-3.420891e+02 0.000000e+00 0e0
-2.988501e+02 0.000000e+00 0e0
-2.445993e+02 0.000000e+00 0e0
-1.772484e+02 0.000000e+00 0e0
-9.431042e+01 0.000000e+00 0e0
0.000000e+00 0.000000e+00 0e0
0.000000e+00 0.000000e+00 0e0
-1.627349e+01 0.000000e+00 0e0
-3.272475e+01 0.000000e+00 0e0
-4.925454e+01 0.000000e+00 0e0
-6.583924e+01 0.000000e+00 0e0
-8.227066e+01 0.000000e+00 0e0
-9.863375e+01 0.000000e+00 0e0
-1.151370e+02 0.000000e+00 0e0
-1.320942e+02 0.000000e+00 0e0
-1.498422e+02 0.000000e+00 0e0
-1.688487e+02 0.000000e+00 0e0
-1.895184e+02 0.000000e+00 0e0
-2.125058e+02 0.000000e+00 0e0
-2.375238e+02 0.000000e+00 0e0
-2.636943e+02 0.000000e+00 0e0
-2.891617e+02 0.000000e+00 0e0
-3.127687e+02 0.000000e+00 0e0
-3.338229e+02 0.000000e+00 0e0
-3.519831e+02 0.000000e+00 0e0
-3.666373e+02 0.000000e+00 0e0
-3.770209e+02 0.000000e+00 0e0
-3.825644e+02 0.000000e+00 0e0
-3.828385e+02 0.000000e+00 0e0
-3.775367e+02 0.000000e+00 0e0
-3.663290e+02 0.000000e+00 0e0
-3.488027e+02 0.000000e+00 0e0
-3.244251e+02 0.000000e+00 0e0
-2.925237e+02 0.000000e+00 0e0
-2.522842e+02 0.000000e+00 0e0
-2.028030e+02 0.000000e+00 0e0
-1.433392e+02 0.000000e+00 0e0
-7.458843e+01 0.000000e+00 0e0
0.000000e+00 0.000000e+00 0e0
0.000000e+00 0.000000e+00 0e0
-1.532783e+01 0.000000e+00 0e0
-3.075651e+01 0.000000e+00 0e0
-4.630125e+01 0.000000e+00 0e0
-6.182801e+01 0.000000e+00 0e0
-7.729702e+01 0.000000e+00 0e0
-9.275007e+01 0.000000e+00 0e0
-1.083431e+02 0.000000e+00 0e0
-1.243027e+02 0.000000e+00 0e0
-1.408918e+02 0.000000e+00 0e0
-1.583876e+02 0.000000e+00 0e0
-1.770377e+02 0.000000e+00 0e0
-1.969310e+02 0.000000e+00 0e0
-2.178317e+02 0.000000e+00 0e0
-2.390862e+02 0.000000e+00 0e0
-2.598154e+02 0.000000e+00 0e0
-2.791509e+02 0.000000e+00 0e0
-2.964327e+02 0.000000e+00 0e0
-3.111208e+02 0.000000e+00 0e0
-3.226930e+02 0.000000e+00 0e0
-3.306175e+02 0.000000e+00 0e0
-3.343969e+02 0.000000e+00 0e0
-3.336136e+02 0.000000e+00 0e0
-3.279012e+02 0.000000e+00 0e0
-3.169070e+02 0.000000e+00 0e0
-3.002504e+02 0.000000e+00 0e0
-2.775049e+02 0.000000e+00 0e0
-2.482027e+02 0.000000e+00 0e0
-2.118815e+02 0.000000e+00 0e0
-1.682155e+02 0.000000e+00 0e0
-1.173579e+02 0.000000e+00 0e0
-6.045556e+01 0.000000e+00 0e0
0.000000e+00 0.000000e+00 0e0
0.000000e+00 0.000000e+00 0e0
-1.409104e+01 0.000000e+00 0e0
-2.823051e+01 0.000000e+00 0e0
-4.242155e+01 0.000000e+00 0e0
-5.664259e+01 0.000000e+00 0e0
-7.086795e+01 0.000000e+00 0e0
-8.513433e+01 0.000000e+00 0e0
-9.954335e+01 0.000000e+00 0e0
-1.142444e+02 0.000000e+00 0e0
-1.294053e+02 0.000000e+00 0e0
-1.451788e+02 0.000000e+00 0e0
-1.616543e+02 0.000000e+00 0e0
-1.787910e+02 0.000000e+00 0e0
-1.963547e+02 0.000000e+00 0e0
-2.139088e+02 0.000000e+00 0e0
-2.308794e+02 0.000000e+00 0e0
-2.466634e+02 0.000000e+00 0e0
-2.607013e+02 0.000000e+00 0e0
-2.724919e+02 0.000000e+00 0e0
-2.815692e+02 0.000000e+00 0e0
-2.874879e+02 0.000000e+00 0e0
-2.898308e+02 0.000000e+00 0e0
-2.882172e+02 0.000000e+00 0e0
-2.823004e+02 0.000000e+00 0e0
-2.717535e+02 0.000000e+00 0e0
-2.562566e+02 0.000000e+00 0e0
-2.354972e+02 0.000000e+00 0e0
-2.091937e+02 0.000000e+00 0e0
-1.771589e+02 0.000000e+00 0e0
-1.394294e+02 0.000000e+00 0e0
-9.646925e+01 0.000000e+00 0e0
-4.938550e+01 0.000000e+00 0e0
0.000000e+00 0.000000e+00 0e0
0.000000e+00 0.000000e+00 0e0
-1.272503e+01 0.000000e+00 0e0
-2.547431e+01 0.000000e+00 0e0
-3.825948e+01 0.000000e+00 0e0
-5.107827e+01 0.000000e+00 0e0
-6.393654e+01 0.000000e+00 0e0
-7.686449e+01 0.000000e+00 0e0
-8.992651e+01 0.000000e+00 0e0
-1.032114e+02 0.000000e+00 0e0
-1.168117e+02 0.000000e+00 0e0
-1.307949e+02 0.000000e+00 0e0
-1.451701e+02 0.000000e+00 0e0
-1.598521e+02 0.000000e+00 0e0
-1.746368e+02 0.000000e+00 0e0
-1.892021e+02 0.000000e+00 0e0
-2.031396e+02 0.000000e+00 0e0
-2.160014e+02 0.000000e+00 0e0
-2.273415e+02 0.000000e+00 0e0
-2.367346e+02 0.000000e+00 0e0
-2.437789e+02 0.000000e+00 0e0
-2.480950e+02 0.000000e+00 0e0
-2.493270e+02 0.000000e+00 0e0
-2.471453e+02 0.000000e+00 0e0
-2.412474e+02 0.000000e+00 0e0
-2.313567e+02 0.000000e+00 0e0
-2.172243e+02 0.000000e+00 0e0
-1.986410e+02 0.000000e+00 0e0
-1.754678e+02 0.000000e+00 0e0
-1.476936e+02 0.000000e+00 0e0
-1.155245e+02 0.000000e+00 0e0
-7.949303e+01 0.000000e+00 0e0
-4.053947e+01 0.000000e+00 0e0
0.000000e+00 0.000000e+00 0e0
0.000000e+00 0.000000e+00 0e0
-1.132176e+01 0.000000e+00 0e0
-2.265973e+01 0.000000e+00 0e0
-3.402561e+01 0.000000e+00 0e0
-4.542838e+01 0.000000e+00 0e0
-5.688060e+01 0.000000e+00 0e0
-6.840706e+01 0.000000e+00 0e0
-8.004674e+01 0.000000e+00 0e0
-9.184695e+01 0.000000e+00 0e0
-1.038491e+02 0.000000e+00 0e0
-1.160695e+02 0.000000e+00 0e0
-1.284774e+02 0.000000e+00 0e0
-1.409759e+02 0.000000e+00 0e0
-1.533906e+02 0.000000e+00 0e0
-1.654721e+02 0.000000e+00 0e0
-1.769121e+02 0.000000e+00 0e0
-1.873677e+02 0.000000e+00 0e0
-1.964848e+02 0.000000e+00 0e0
-2.039139e+02 0.000000e+00 0e0
-2.093185e+02 0.000000e+00 0e0
-2.123789e+02 0.000000e+00 0e0
-2.127951e+02 0.000000e+00 0e0
-2.102899e+02 0.000000e+00 0e0
-2.046119e+02 0.000000e+00 0e0
-1.955404e+02 0.000000e+00 0e0
-1.828936e+02 0.000000e+00 0e0
-1.665445e+02 0.000000e+00 0e0
-1.464500e+02 0.000000e+00 0e0
-1.226939e+02 0.000000e+00 0e0
-9.554164e+01 0.000000e+00 0e0
-6.549449e+01 0.000000e+00 0e0
-3.331515e+01 0.000000e+00 0e0
0.000000e+00 0.000000e+00 0e0
0.000000e+00 0.000000e+00 0e0
-9.925433e+00 0.000000e+00 0e0
-1.986401e+01 0.000000e+00 0e0
-2.982753e+01 0.000000e+00 0e0
-3.982698e+01 0.000000e+00 0e0
-4.987522e+01 0.000000e+00 0e0
-5.998939e+01 0.000000e+00 0e0
-7.019072e+01 0.000000e+00 0e0
-8.049967e+01 0.000000e+00 0e0
-9.092646e+01 0.000000e+00 0e0
-1.014586e+02 0.000000e+00 0e0
-1.120478e+02 0.000000e+00 0e0
-1.225985e+02 0.000000e+00 0e0
-1.329631e+02 0.000000e+00 0e0
-1.429428e+02 0.000000e+00 0e0
-1.522979e+02 0.000000e+00 0e0
-1.607604e+02 0.000000e+00 0e0
-1.680490e+02 0.000000e+00 0e0
-1.738806e+02 0.000000e+00 0e0
-1.779786e+02 0.000000e+00 0e0
-1.800783e+02 0.000000e+00 0e0
-1.799318e+02 0.000000e+00 0e0
-1.773116e+02 0.000000e+00 0e0
-1.720162e+02 0.000000e+00 0e0
-1.638766e+02 0.000000e+00 0e0
-1.527665e+02 0.000000e+00 0e0
-1.386189e+02 0.000000e+00 0e0
-1.214480e+02 0.000000e+00 0e0
-1.013795e+02 0.000000e+00 0e0
-7.868168e+01 0.000000e+00 0e0
-5.379020e+01 0.000000e+00 0e0
-2.731243e+01 0.000000e+00 0e0
0.000000e+00 0.000000e+00 0e0
0.000000e+00 0.000000e+00 0e0
-8.555267e+00 0.000000e+00 0e0
-1.712252e+01 0.000000e+00 0e0
-2.571293e+01 0.000000e+00 0e0
-3.433676e+01 0.000000e+00 0e0
-4.300394e+01 0.000000e+00 0e0
-5.172449e+01 0.000000e+00 0e0
-6.050718e+01 0.000000e+00 0e0
-6.935580e+01 0.000000e+00 0e0
-7.826287e+01 0.000000e+00 0e0
-8.720166e+01 0.000000e+00 0e0
-9.611815e+01 0.000000e+00 0e0
-1.049246e+02 0.000000e+00 0e0
-1.134967e+02 0.000000e+00 0e0
-1.216748e+02 0.000000e+00 0e0
-1.292694e+02 0.000000e+00 0e0
-1.360694e+02 0.000000e+00 0e0
-1.418516e+02 0.000000e+00 0e0
-1.463888e+02 0.000000e+00 0e0
-1.494572e+02 0.000000e+00 0e0
-1.508418e+02 0.000000e+00 0e0
-1.503418e+02 0.000000e+00 0e0
-1.477751e+02 0.000000e+00 0e0
-1.429843e+02 0.000000e+00 0e0
-1.358442e+02 0.000000e+00 0e0
-1.262717e+02 0.000000e+00 0e0
-1.142393e+02 0.000000e+00 0e0
-9.979157e+01 0.000000e+00 0e0
-8.306477e+01 0.000000e+00 0e0
-6.430365e+01 0.000000e+00 0e0
-4.387163e+01 0.000000e+00 0e0
-2.224691e+01 0.000000e+00 0e0
0.000000e+00 0.000000e+00 0e0
0.000000e+00 0.000000e+00 0e0
-7.217740e+00 0.000000e+00 0e0
-1.444729e+01 0.000000e+00 0e0
-2.169921e+01 0.000000e+00 0e0
-2.898204e+01 0.000000e+00 0e0
-3.630215e+01 0.000000e+00 0e0
-4.366351e+01 0.000000e+00 0e0
-5.106647e+01 0.000000e+00 0e0
-5.850506e+01 0.000000e+00 0e0
-6.596277e+01 0.000000e+00 0e0
-7.340746e+01 0.000000e+00 0e0
-8.078641e+01 0.000000e+00 0e0
-8.802249e+01 0.000000e+00 0e0
-9.501256e+01 0.000000e+00 0e0
-1.016284e+02 0.000000e+00 0e0
-1.077202e+02 0.000000e+00 0e0
-1.131219e+02 0.000000e+00 0e0
-1.176573e+02 0.000000e+00 0e0
-1.211465e+02 0.000000e+00 0e0
-1.234113e+02 0.000000e+00 0e0
-1.242804e+02 0.000000e+00 0e0
-1.235947e+02 0.000000e+00 0e0
-1.212118e+02 0.000000e+00 0e0
-1.170118e+02 0.000000e+00 0e0
-1.109046e+02 0.000000e+00 0e0
-1.028383e+02 0.000000e+00 0e0
-9.280949e+01 0.000000e+00 0e0
-8.087565e+01 0.000000e+00 0e0
-6.716632e+01 0.000000e+00 0e0
-5.189229e+01 0.000000e+00 0e0
-3.534836e+01 0.000000e+00 0e0
-1.790682e+01 0.000000e+00 0e0
0.000000e+00 0.000000e+00 0e0
0.000000e+00 0.000000e+00 0e0
-5.911935e+00 0.000000e+00 0e0
-1.183691e+01 0.000000e+00 0e0
-1.778548e+01 0.000000e+00 0e0
-2.376431e+01 0.000000e+00 0e0
-2.977606e+01 0.000000e+00 0e0
-3.581974e+01 0.000000e+00 0e0
-4.189013e+01 0.000000e+00 0e0
-4.797609e+01 0.000000e+00 0e0
-5.405766e+01 0.000000e+00 0e0
-6.010271e+01 0.000000e+00 0e0
-6.606378e+01 0.000000e+00 0e0
-7.187576e+01 0.000000e+00 0e0
-7.745499e+01 0.000000e+00 0e0
-8.269993e+01 0.000000e+00 0e0
-8.749345e+01 0.000000e+00 0e0
-9.170641e+01 0.000000e+00 0e0
-9.520192e+01 0.000000e+00 0e0
-9.783987e+01 0.000000e+00 0e0
-9.948147e+01 0.000000e+00 0e0
-9.999358e+01 0.000000e+00 0e0
-9.925305e+01 0.000000e+00 0e0
-9.715132e+01 0.000000e+00 0e0
-9.359955e+01 0.000000e+00 0e0
-8.853460e+01 0.000000e+00 0e0
-8.192602e+01 0.000000e+00 0e0
-7.378389e+01 0.000000e+00 0e0
-6.416693e+01 0.000000e+00 0e0
-5.318963e+01 0.000000e+00 0e0
-4.102635e+01 0.000000e+00 0e0
-2.791048e+01 0.000000e+00 0e0
-1.412720e+01 0.000000e+00 0e0
0.000000e+00 0.000000e+00 0e0
0.000000e+00 0.000000e+00 0e0
-4.631679e+00 0.000000e+00 0e0
-9.280609e+00 0.000000e+00 0e0
-1.395861e+01 0.000000e+00 0e0
-1.866999e+01 0.000000e+00 0e0
-2.341292e+01 0.000000e+00 0e0
-2.818176e+01 0.000000e+00 0e0
-3.296769e+01 0.000000e+00 0e0
-3.775753e+01 0.000000e+00 0e0
-4.253151e+01 0.000000e+00 0e0
-4.726086e+01 0.000000e+00 0e0
-5.190572e+01 0.000000e+00 0e0
-5.641371e+01 0.000000e+00 0e0
-6.071930e+01 0.000000e+00 0e0
-6.474441e+01 0.000000e+00 0e0
-6.839989e+01 0.000000e+00 0e0
-7.158796e+01 0.000000e+00 0e0
-7.420516e+01 0.000000e+00 0e0
-7.614568e+01 0.000000e+00 0e0
-7.730476e+01 0.000000e+00 0e0
-7.758219e+01 0.000000e+00 0e0
-7.688593e+01 0.000000e+00 0e0
-7.513591e+01 0.000000e+00 0e0
-7.226833e+01 0.000000e+00 0e0
-6.824041e+01 0.000000e+00 0e0
-6.303574e+01 0.000000e+00 0e0
-5.667004e+01 0.000000e+00 0e0
-4.919668e+01 0.000000e+00 0e0
-4.071123e+01 0.000000e+00 0e0
-3.135317e+01 0.000000e+00 0e0
-2.130295e+01 0.000000e+00 0e0
-1.077372e+01 0.000000e+00 0e0
0.000000e+00 0.000000e+00 0e0
0.000000e+00 0.000000e+00 0e0